ITEM: TIMESTEP
0
ITEM: NUMBER OF ATOMS
63
ITEM: BOX BOUNDS pp pp pp
-40.20320129394531 45.31079864501953
10.6156005859375 96.12960052490234
-41.829498291015625 43.68450164794922
ITEM: ATOMS id type xu yu zu
1 1   -6.868   20.731   -3.257
2 1   -3.888   18.677   -2.116
3 1   -9.805   18.825   -2.942
4 1   -7.975   15.328   -4.203
5 1   -4.592   17.174   -5.613
6 1   -9.822   12.978   -6.805
7 1   -9.305   15.015  -10.154
8 1   -5.671   16.019   -9.061
9 1  -11.613   17.177  -10.687
10 1  -11.180   17.245  -14.713
11 1  -13.657   15.395  -16.967
12 1  -11.806   15.246  -20.323
13 1  -10.532   11.746  -19.374
14 1   -9.892   17.608  -20.729
15 1   -8.918   16.945  -24.478
16 1  -12.260   19.466  -26.581
17 1   -9.203   13.083  -25.597
18 1  -12.956   13.365  -27.149
19 1  -12.133   16.808  -29.256
20 1  -14.331   10.743  -29.060
21 1  -16.186   12.609  -31.711
22 1  -13.667   16.160  -33.149
23 1  -17.612   10.665  -34.575
24 1  -18.113   13.336  -36.719
25 1  -14.033   14.392  -36.298
26 1  -19.390   12.392  -39.720
27 1  -18.038   15.760  -41.473
28 1  -13.898   15.211  -40.344
29 1  -18.317   15.952   40.229
30 1  -16.594   19.027   40.321
31 1  -13.575   18.204   42.662
32 1   -3.659   16.752   41.544
33 1   -8.003   17.157   42.615
34 1   -2.192   19.224  -41.829
35 1   -5.270   21.181  -40.911
36 1   -8.945   18.089  -39.471
37 1   -5.419   23.899  -38.945
38 1   -9.640   23.839  -39.044
39 1  -11.076   19.433  -36.965
40 1  -11.325   27.058  -37.421
41 1  -15.232   24.994  -36.811
42 1  -13.232   21.785  -34.921
43 1  -18.102   26.602  -35.023
44 1  -19.765   22.896  -33.817
45 1  -15.739   20.784  -31.299
46 1  -22.549   22.839  -31.854
47 1  -21.605   18.897  -30.188
48 1  -17.955   20.769  -28.590
49 1  -23.633   17.694  -27.523
50 1  -26.632   20.122  -28.522
51 1  -27.324   19.750  -33.285
52 1  -29.433   20.277  -26.530
53 1  -31.354   21.250  -29.434
54 1  -29.735   17.685  -31.343
55 1  -34.689   21.382  -29.373
56 1  -35.018   19.788  -32.762
57 1  -33.474   15.743  -32.624
58 1  -38.088   20.063  -34.688
59 1  -37.771   16.041  -36.027
60 1  -36.290   12.944  -32.632
61 1  -40.203   14.637  -38.066
62 1  -39.146   10.901  -36.799
63 1  -39.271   10.616  -31.878
ITEM: TIMESTEP
1
ITEM: NUMBER OF ATOMS
63
ITEM: BOX BOUNDS pp pp pp
-64.71807861328125 20.795921325683594
5.0002031326293945 90.51420593261719
-43.05134582519531 42.46265411376953
ITEM: ATOMS id type xu yu zu
1 1  -11.856   26.437  -19.247
2 1  -11.681   22.647  -20.750
3 1  -10.665   28.716  -21.499
4 1   -7.758   26.780  -22.561
5 1   -9.933   23.842  -24.078
6 1   -4.972   28.436  -24.502
7 1   -3.558   25.110  -26.355
8 1   -6.890   23.452  -26.973
9 1   -1.352   25.610  -28.683
10 1   -2.999   22.382  -30.792
11 1   -1.334   20.989  -33.282
12 1    1.635   19.495  -31.011
13 1    4.011   18.513  -34.850
14 1    0.988   16.769  -29.218
15 1    3.298   14.649  -31.497
16 1    7.556   16.774  -32.685
17 1    3.470   10.781  -31.038
18 1    6.320   10.212  -33.642
19 1    8.841   13.326  -31.457
20 1    7.544    7.273  -33.690
21 1   11.374    7.667  -33.565
22 1   12.371   10.960  -30.492
23 1   13.566    5.000  -33.783
24 1  -62.881   15.393   -2.899
25 1   14.615    8.508  -28.838
26 1  -60.117   13.114   -1.808
27 1  -58.780   15.454    1.321
28 1   18.250    8.920  -27.112
29 1  -57.471   13.758    4.118
30 1  -56.399   16.640    6.133
31 1  -59.010   19.359    4.381
32 1   14.471    8.691  -17.461
33 1   14.697    6.207  -22.101
34 1   12.196   11.251  -17.616
35 1   14.379   14.433  -19.345
36 1   15.866   12.218  -23.408
37 1   13.438   17.562  -20.442
38 1   16.034   17.784  -23.722
39 1   14.454   13.788  -26.267
40 1   16.252   20.382  -25.473
41 1   17.802   18.588  -28.553
42 1   14.464   16.456  -28.926
43 1  -61.184   29.180   -2.466
44 1  -62.428   26.777   -5.575
45 1   13.400   16.653  -33.503
46 1  -62.183   28.073   -9.119
47 1   14.207   17.190  -39.408
48 1   12.055   18.628  -36.373
49 1   13.135   17.654  -43.051
50 1  -63.149   25.818  -15.891
51 1  -64.718   22.515  -19.143
52 1  -60.861   24.058  -13.292
53 1  -59.301   21.300  -15.679
54 1  -63.069   20.255  -16.859
55 1  -56.859   19.390  -14.876
56 1  -57.536   16.825  -18.281
57 1  -57.257   19.926  -22.259
58 1  -55.466   13.480  -18.980
59 1  -52.799   15.013  -21.873
60 1  -55.120   17.913  -25.046
61 1  -51.196   12.722  -23.815
62 1  -54.065   12.860  -26.760
63 1  -53.445   17.811  -28.344
ITEM: TIMESTEP
2
ITEM: NUMBER OF ATOMS
63
ITEM: BOX BOUNDS pp pp pp
-32.84783935546875 52.666160583496094
7.441179275512695 92.9551773071289
-47.712623596191406 37.80137634277344
ITEM: ATOMS id type xu yu zu
1 1  -28.562   14.475   35.096
2 1  -27.123   17.652   33.494
3 1  -29.791   14.678   38.655
4 1  -28.689   11.068  -45.660
5 1  -26.574   14.173  -45.375
6 1  -25.186   10.261   37.579
7 1  -21.865   11.551   38.982
8 1  -22.585   15.301   36.976
9 1  -18.718    9.908   38.389
10 1  -18.858   10.012  -44.236
11 1  -15.487    9.744  -43.561
12 1  -16.221   10.512  -40.075
13 1  -19.830    8.553  -40.088
14 1  -13.833    9.577  -37.237
15 1  -10.338    9.570  -39.170
16 1  -10.288   12.632  -42.978
17 1   -7.237    8.689  -37.725
18 1   -5.747    8.380  -40.820
19 1   -6.593   12.178  -42.235
20 1   -2.489    7.632  -41.547
21 1   -2.924    7.914  -45.741
22 1   -4.987   11.748  -46.301
23 1    0.245    7.441  -47.713
24 1    1.238   11.663   35.641
25 1   -1.417   12.465  -46.342
26 1    3.517   12.744   33.493
27 1    4.802   16.299   35.263
28 1    2.916   13.025  -46.514
29 1    7.672   18.234   33.677
30 1    8.602   20.919   36.967
31 1    5.059   16.273  -45.803
32 1  -13.485   28.346  -25.018
33 1  -11.554   24.570  -26.714
34 1  -16.434   27.562  -24.180
35 1  -18.699   30.163  -26.682
36 1  -23.179   28.630  -26.761
37 1  -16.865   30.905  -30.327
38 1  -20.476   29.945  -32.285
39 1  -22.874   26.367  -29.660
40 1  -20.376   28.884  -35.692
41 1  -21.012   25.106  -34.798
42 1  -24.821   26.149  -32.629
43 1  -18.812   23.760  -32.633
44 1  -20.663   20.182  -32.813
45 1  -19.254   18.399  -36.588
46 1  -19.709   17.428  -30.118
47 1  -22.270   14.117  -31.529
48 1  -21.175   15.266  -35.035
49 1  -26.062   14.462  -31.145
50 1  -26.640   17.803  -32.548
51 1  -24.658   17.370  -36.471
52 1  -30.281   18.647  -32.664
53 1  -29.680   21.841  -34.491
54 1  -27.146   20.082  -36.875
55 1  -32.848   23.563  -36.044
56 1  -32.623   22.638  -39.433
57 1  -29.832   18.902  -40.107
58 1  -32.145   24.998  -41.630
59 1  -28.637   24.534  -42.984
60 1  -27.386   19.595  -43.593
61 1  -27.617   26.601  -45.994
62 1  -24.734   24.149  -47.250
63 1  -24.363   22.135   35.345
ITEM: TIMESTEP
3
ITEM: NUMBER OF ATOMS
63
ITEM: BOX BOUNDS pp pp pp
-42.893035888671875 42.62096405029297
9.694103240966797 95.20809936523438
-39.062164306640625 46.45183563232422
ITEM: ATOMS id type xu yu zu
1 1   -5.996   16.612   -1.069
2 1   -5.011   15.488    2.835
3 1   -2.830   16.645   -3.566
4 1   -4.182   19.441   -5.636
5 1   -6.377   17.179   -8.385
6 1   -6.176   22.188   -4.520
7 1   -8.092   23.084   -8.106
8 1   -9.224   19.451   -9.428
9 1   -7.087   25.516  -10.791
10 1  -10.390   24.903  -13.287
11 1   -9.927   25.038  -16.460
12 1  -11.731   21.233  -16.972
13 1  -12.688   22.454  -20.412
14 1   -9.539   18.107  -16.731
15 1  -11.987   15.995  -18.330
16 1  -14.011   18.363  -21.325
17 1  -11.224   13.113  -19.260
18 1  -13.994   12.733  -21.524
19 1  -12.471   15.978  -23.878
20 1  -14.429    9.694  -23.313
21 1  -16.392   11.985  -26.252
22 1  -13.097   15.470  -27.950
23 1  -18.106   10.394  -28.673
24 1  -18.162   13.248  -31.208
25 1  -14.497   13.767  -30.831
26 1  -19.732   12.952  -34.835
27 1  -17.509   15.976  -36.663
28 1  -14.170   14.326  -35.285
29 1  -24.632   16.343   45.029
30 1  -21.728   17.793   44.755
31 1  -19.432   14.111   46.355
32 1   -2.702   12.704  -35.045
33 1   -7.760   12.887  -36.601
34 1   -1.877   15.666  -33.572
35 1   -4.411   17.847  -35.279
36 1   -8.910   15.581  -34.423
37 1   -4.730   21.569  -34.474
38 1   -8.746   21.677  -34.891
39 1  -10.461   17.933  -32.156
40 1  -10.443   24.824  -34.254
41 1  -13.555   22.579  -33.735
42 1  -12.036   20.767  -30.645
43 1  -16.289   24.191  -32.917
44 1  -18.100   21.177  -31.069
45 1  -14.875   19.650  -27.683
46 1  -21.489   21.847  -29.854
47 1  -21.258   18.675  -27.078
48 1  -17.956   20.270  -25.119
49 1  -24.193   17.820  -24.907
50 1  -26.559   17.934  -28.144
51 1  -25.162   14.474  -31.068
52 1  -27.481   21.130  -29.736
53 1  -31.028   19.246  -30.700
54 1  -31.919   19.627  -26.667
55 1  -33.279   20.708  -33.428
56 1  -35.971   18.403  -33.033
57 1  -35.827   18.443  -28.629
58 1  -35.202   14.876  -34.103
59 1  -37.550   15.365  -37.389
60 1  -37.778   10.660  -39.062
61 1  -41.187   16.394  -36.032
62 1  -42.893   14.017  -38.762
63 1  -41.146    9.848  -38.086
ITEM: TIMESTEP
4
ITEM: NUMBER OF ATOMS
63
ITEM: BOX BOUNDS pp pp pp
-46.15198516845703 39.36201477050781
-48.449371337890625 37.06462860107422
-38.53824234008789 46.97575759887695
ITEM: ATOMS id type xu yu zu
1 1  -20.239   26.627  -25.961
2 1  -17.171   24.261  -26.137
3 1  -21.641   27.018  -22.963
4 1  -20.710   23.531  -21.497
5 1  -20.367   21.761  -24.955
6 1  -23.138   21.486  -19.129
7 1  -25.153   19.945  -22.113
8 1  -21.422   18.272  -23.852
9 1  -27.729   22.022  -24.013
10 1  -29.522   18.999  -25.499
11 1  -28.168   15.676  -25.335
12 1  -28.695   15.412  -21.281
13 1  -32.716   16.670  -21.597
14 1  -28.359   11.947  -19.259
15 1  -29.225   13.288  -15.933
16 1  -32.415   17.018  -16.711
17 1  -29.037   11.489  -12.854
18 1  -31.094   13.412  -10.349
19 1  -34.200   14.808  -13.644
20 1  -32.006   11.592   -7.406
21 1  -29.499    9.216   -7.725
22 1  -31.988    5.600   -9.556
23 1  -26.549    9.822   -9.847
24 1  -25.153    5.651  -10.209
25 1  -28.537    3.947   -9.080
26 1  -24.069    4.580  -13.131
27 1  -27.180    1.986  -13.575
28 1  -26.773    0.266   -9.658
29 1  -26.721   -0.555  -16.177
30 1  -29.514   -2.461  -15.148
31 1  -28.540   -2.959  -10.904
32 1   26.130   28.193  -30.871
33 1   28.179   32.148  -30.542
34 1   26.441   26.448  -34.556
35 1   28.474   29.539  -36.642
36 1   27.971   33.466  -34.134
37 1   32.158   28.637  -37.231
38 1   33.272   32.795  -37.848
39 1   30.829   35.239  -35.221
40 1   36.607   33.672  -38.538
41 1   36.038   37.379  -37.509
42 1   34.257   36.408  -34.052
43 1  -39.648    7.787  -22.798
44 1   35.664   42.110  -36.254
45 1   34.571   40.419  -32.445
46 1  -41.957   12.997  -21.509
47 1  -40.565   12.892  -17.764
48 1   33.546   43.683  -31.131
49 1  -39.056   15.857  -15.728
50 1  -40.668   18.613  -17.974
51 1  -39.059   17.301  -22.620
52 1  -40.425   22.287  -17.328
53 1  -42.800   22.729  -20.207
54 1  -40.752   20.509  -22.825
55 1  -44.142   25.983  -21.216
56 1  -46.068   24.444  -24.519
57 1  -42.137   22.296  -26.636
58 1  -12.763  -48.449   -7.550
59 1  -46.152   25.684  -30.626
60 1  -41.713   24.686  -29.797
61 1  -11.833  -47.972  -14.419
62 1  -43.200   27.193  -35.287
63 1  -41.267   23.072  -32.987
