ITEM: TIMESTEP
0
ITEM: NUMBER OF ATOMS
64
ITEM: BOX BOUNDS pp pp pp
-42.64579772949219 42.868202209472656
-42.87929916381836 42.634700775146484
-42.505897521972656 43.00810241699219
ITEM: ATOMS id type xu yu zu
1 1  -32.404  -39.270   36.638
2 1  -32.482  -42.230   39.407
3 1  -34.243  -36.234   37.697
4 1  -37.497  -38.379   36.421
5 1  -36.384  -41.577   39.316
6 1  -40.895  -37.000   36.888
7 1  -42.646  -40.196   36.368
8 1  -39.686   42.816   38.148
9 1   39.399  -40.852   37.186
10 1   40.282   40.800   36.614
11 1   35.999   38.797   37.757
12 1   41.561   39.472   33.985
13 1   40.959   35.541   35.104
14 1   36.483   36.007   35.546
15 1   42.075   32.613   32.872
16 1   39.520   29.753   34.950
17 1   35.436   31.886   36.146
18 1   39.378   25.989   34.380
19 1   34.998   25.710   35.464
20 1   34.416   29.201   33.772
21 1   34.078   24.903   38.707
22 1   31.537   27.632   38.658
23 1   30.161   27.976   33.947
24 1   29.472   28.198   40.895
25 1   26.418   29.266   38.558
26 1   28.705   30.935   35.348
27 1   23.343   30.307   39.471
28 1   21.658   30.301   35.791
29 1   24.875   30.816   33.867
30 1   19.464   27.612   34.417
31 1   20.001   28.539   30.944
32 1   24.351   28.354   31.072
33 1   28.354   12.118  -39.747
34 1   25.319    7.980  -39.919
35 1   26.270   15.127  -39.991
36 1   29.411   17.071  -40.709
37 1   29.027   20.231   40.807
38 1   31.402   18.341  -38.136
39 1   29.488   21.277  -37.960
40 1   30.027   23.370  -42.506
41 1   29.951   23.736  -35.489
42 1   33.963   23.840  -36.090
43 1   33.777   24.610  -40.152
44 1   35.757   25.990  -34.147
45 1   39.129   26.040  -36.824
46 1   37.611   26.230  -40.878
47 1   42.612   27.261  -36.086
48 1  -42.172   28.540  -39.481
49 1   42.376   24.856  -41.578
50 1  -38.709   30.178  -40.105
51 1  -39.841   33.448  -41.066
52 1  -40.725   35.265  -37.370
53 1  -37.897   35.770   42.540
54 1  -36.215   37.537  -39.826
55 1  -40.088   38.785  -38.795
56 1  -33.613   39.833  -40.171
57 1  -35.981  -42.879  -39.098
58 1  -37.748   41.057  -34.945
59 1  -34.487  -39.512  -38.907
60 1  -35.798  -38.140  -35.865
61 1  -37.933  -40.945  -33.455
62 1  -34.645  -34.873  -34.324
63 1  -35.805  -36.268  -30.315
64 1  -32.030  -38.457  -28.525
ITEM: TIMESTEP
1
ITEM: NUMBER OF ATOMS
64
ITEM: BOX BOUNDS pp pp pp
-34.14179992675781 51.37220001220703
-30.20022201538086 55.313777923583984
-30.44892120361328 55.06507873535156
ITEM: ATOMS id type xu yu zu
1 1   -7.602  -18.213   -1.039
2 1   -5.579  -14.844   -0.266
3 1   -5.080  -20.822   -0.710
4 1   -7.085  -23.278   -3.437
5 1   -3.658  -25.014   -4.910
6 1   -8.999  -22.132   -6.005
7 1  -10.465  -26.084   -7.022
8 1  -14.035  -24.564   -8.887
9 1   -8.588  -28.718   -8.255
10 1  -11.496  -30.200   -9.473
11 1  -13.876  -27.219  -12.066
12 1   21.094   35.685   27.135
13 1   17.875   36.280   24.404
14 1   19.900   39.839   23.144
15 1   17.156   33.761   21.708
16 1   15.704   36.176   19.780
17 1   18.420   39.470   19.189
18 1   14.274   35.535   17.005
19 1   16.181   37.574   14.495
20 1   19.636   37.574   16.190
21 1   16.330   36.312   11.235
22 1   19.356   38.656   10.186
23 1   22.943   37.982   13.622
24 1   20.414   37.959    6.815
25 1   23.537   39.954    7.002
26 1   24.760   38.022   10.029
27 1   25.840   40.047    4.117
28 1   28.846   40.257    6.265
29 1   28.195   36.785    8.342
30 1   31.935   40.340    4.764
31 1   32.500   44.196    4.472
32 1   -1.629  -23.764  -30.449
33 1   28.466   29.985   17.982
34 1   26.874   33.701   14.996
35 1   32.197   30.421   17.969
36 1   32.430   34.183   16.810
37 1   30.067   34.907   13.288
38 1   35.304   35.692   16.593
39 1    0.457  -30.065  -21.159
40 1   28.885   38.434   14.652
41 1    0.164  -28.433  -18.756
42 1   -2.931  -26.134  -20.064
43 1   27.038   39.495   17.706
44 1   -3.885  -23.372  -18.025
45 1   -7.107  -22.696  -20.296
46 1   22.698   42.421   17.994
47 1   -8.526  -19.770  -20.124
48 1  -11.995  -21.325  -21.943
49 1  -12.356  -24.253  -19.156
50 1  -15.316  -19.240  -22.759
51 1   15.251   46.610   15.025
52 1   15.854   44.438   19.003
53 1   11.895   46.784   13.826
54 1   10.756   49.721   16.552
55 1  -20.100  -16.149  -22.828
56 1    6.641   49.576   17.372
57 1  -25.540  -16.145  -18.512
58 1  -24.159  -13.295  -22.397
59 1  -27.948  -15.340  -16.628
60 1  -30.498  -13.811  -19.635
61 1  -27.709  -13.229  -24.044
62 1  -34.142  -15.292  -19.848
63 1   -2.382   55.122   14.105
64 1    1.930   54.615   12.144
ITEM: TIMESTEP
2
ITEM: NUMBER OF ATOMS
64
ITEM: BOX BOUNDS pp pp pp
-11.837807655334473 73.67619323730469
-16.061498641967773 69.45249938964844
-25.352937698364258 60.16106414794922
ITEM: ATOMS id type xu yu zu
1 1    0.347  -12.374   52.309
2 1   -0.199  -16.061   50.248
3 1   -0.940   -9.313   50.654
4 1   -1.358   -7.381   54.200
5 1   -4.275   -5.304   53.455
6 1    0.865   -5.828   55.767
7 1   -1.254   -5.952   59.147
8 1   -4.679   -3.978   57.105
9 1   20.816    4.659  -20.577
10 1    0.040   -0.976   59.411
11 1   -4.037   -0.140   58.626
12 1    1.750    1.674   60.156
13 1   -1.780    4.098   59.000
14 1   16.328   10.800  -20.978
15 1   -1.653    7.542   59.233
16 1   -5.225    8.287   59.585
17 1   14.903   14.600  -19.158
18 1   14.321   20.379  -22.615
19 1   11.749   19.344  -20.233
20 1   14.441   17.648  -17.124
21 1    9.109   21.395  -19.514
22 1    8.220   19.568  -16.580
23 1   12.154   19.441  -13.880
24 1    5.810   21.083  -14.446
25 1    6.740   18.645  -12.063
26 1   10.008   21.120  -11.467
27 1    4.816   17.804   -9.663
28 1    7.810   16.277   -7.361
29 1    9.645   20.062   -7.334
30 1    7.627   14.037   -4.686
31 1   10.068   16.105   -2.038
32 1    9.201   19.854   -3.391
33 1   14.975   29.089   -4.705
34 1   11.988   25.170   -4.325
35 1   18.310   27.815   -5.924
36 1   17.962   24.575   -4.556
37 1   14.206   23.204   -6.553
38 1   20.090   22.325   -4.495
39 1   17.382   19.502   -4.555
40 1   15.237   20.347   -8.406
41 1   18.898   16.023   -4.980
42 1   15.219   14.390   -5.985
43 1   15.448   16.700   -9.688
44 1   14.454   10.671   -6.782
45 1   11.367   11.531   -9.499
46 1   13.748   13.698  -12.706
47 1    8.849    8.939  -10.679
48 1    7.570   11.122  -13.803
49 1   11.877   11.689  -15.077
50 1    5.355    9.827  -16.468
51 1    6.460   11.942  -19.088
52 1   10.680   10.409  -19.737
53 1    3.741   11.975  -22.183
54 1    2.123   15.758  -21.345
55 1    3.027   17.389  -25.353
56 1    3.106   17.317  -18.784
57 1    0.023   19.608  -18.978
58 1   -0.813   20.030  -23.685
59 1   -2.992   18.803  -16.811
60 1   -5.382   20.416  -19.350
61 1   -9.738   20.512  -17.515
62 1   -4.926   20.070  -22.579
63 1   -8.660   18.239  -23.615
64 1  -11.838   18.906  -20.354
ITEM: TIMESTEP
3
ITEM: NUMBER OF ATOMS
64
ITEM: BOX BOUNDS pp pp pp
-25.674400329589844 59.839599609375
-22.525156021118164 62.98884582519531
-72.58619689941406 12.927803039550781
ITEM: ATOMS id type xu yu zu
1 1  -14.669  -12.672    5.128
2 1  -15.922  -12.519    0.898
3 1  -15.497  -15.663    6.940
4 1  -11.965  -16.435    7.620
5 1  -11.198  -12.965    9.251
6 1  -11.036  -18.508   10.105
7 1   -7.590  -17.430   10.285
8 1   -8.433  -13.848   11.717
9 1   -4.986  -19.270   12.737
10 1   -7.869  -20.907   15.026
11 1  -11.232  -17.578   15.768
12 1   -6.767  -22.525   18.364
13 1   -9.022  -20.030   21.005
14 1  -12.445  -19.346   18.780
15 1   -9.369  -20.395   24.811
16 1  -12.531  -18.282   25.315
17 1  -15.072  -19.662   22.050
18 1  -14.450  -18.850   28.652
19 1   23.230   48.155   -4.540
20 1   24.809   45.838   -7.335
21 1   20.544   46.689   -2.743
22 1   18.803   44.672   -5.815
23 1   22.175   42.373   -7.722
24 1   15.875   42.879   -4.876
25 1   16.231   40.290   -7.875
26 1   20.451   39.330   -6.698
27 1   13.968   37.495   -7.693
28 1   16.005   34.651   -9.684
29 1   20.214   35.453   -8.599
30 1   14.825   31.105   -8.787
31 1   18.488   30.077   -7.680
32 1   20.630   32.038  -11.142
33 1   -9.943   13.448  -72.586
34 1   33.519   22.666    0.083
35 1   27.782   27.354    0.512
36 1   31.364   28.763   -0.709
37 1   33.228   24.892   -2.646
38 1   32.031   31.746   -2.568
39 1   30.178   30.379   -5.938
40 1   31.065   25.568   -5.553
41 1   30.783   31.942   -9.362
42 1   27.532   30.742  -10.696
43 1   27.878   27.217   -9.408
44 1   25.715   31.692  -14.258
45 1   27.151   35.221  -14.216
46 1   25.043   37.581  -10.194
47 1   26.819   37.305  -17.094
48 1   23.332   38.113  -16.226
49 1   24.646   40.228  -12.654
50 1   21.010   39.938  -18.270
51 1   18.930   42.149  -15.483
52 1   22.099   43.800  -12.448
53 1   16.588   44.515  -16.504
54 1   16.984   47.151  -13.042
55 1  -19.735  -20.647   18.319
56 1  -25.674  -17.515   18.720
57 1  -23.722  -15.626   21.261
58 1  -18.991  -16.695   20.233
59 1  -23.961  -12.141   21.690
60 1  -21.115  -12.151   24.471
61 1  -17.540  -14.751   23.261
62 1  -19.530   -9.215   25.657
63 1  -16.274  -10.543   26.756
64 1  -14.270  -12.182   22.856
ITEM: TIMESTEP
4
ITEM: NUMBER OF ATOMS
64
ITEM: BOX BOUNDS pp pp pp
-42.298946380615234 43.21505355834961
-43.908660888671875 41.60533905029297
-44.90897750854492 40.60502243041992
ITEM: ATOMS id type xu yu zu
1 1   18.946    2.690   13.922
2 1   16.155    5.261   11.896
3 1   20.927    4.283   16.672
4 1   17.702    7.040   17.620
5 1   17.047    8.331   14.296
6 1  -25.008  -43.909  -31.309
7 1   14.344   10.835   18.958
8 1   15.781   11.744   15.484
9 1   11.058    9.007   18.936
10 1    9.198   11.863   17.060
11 1   12.312   13.505   13.777
12 1    5.546   11.532   16.501
13 1    5.775   13.930   14.069
14 1    9.115   12.284   11.959
15 1    2.825   14.820   12.835
16 1    3.371   15.290    8.910
17 1    7.230   18.222    8.587
18 1    0.333   16.088    6.829
19 1    2.499   17.313    3.210
20 1    5.722   17.366    5.225
21 1    2.941   16.050   -0.106
22 1    6.056   17.905   -0.755
23 1    8.803   16.466    2.660
24 1    7.662   17.774   -4.213
25 1   11.052   18.488   -3.122
26 1   11.116   15.273   -0.097
27 1   13.753   17.786   -5.944
28 1   16.558   17.017   -3.599
29 1   14.664   13.744   -1.597
30 1   20.211   16.673   -4.789
31 1   19.565   13.262   -6.171
32 1   18.321   11.867   -2.805
33 1   14.723    3.183    1.577
34 1   16.855    7.214    0.340
35 1   14.563    3.451    5.354
36 1   16.857    6.944    5.111
37 1   14.878    9.943    2.298
38 1   18.715    9.039    8.001
39 1   18.994   12.824    6.224
40 1   14.673   13.011    3.928
41 1   20.011   16.102    7.727
42 1   18.342   18.409    5.402
43 1   14.846   16.406    5.395
44 1   18.442   21.394    5.832
45 1   15.792   21.987    3.566
46 1   11.935   19.239    5.274
47 1   15.110   25.037    2.768
48 1   11.400   24.294    1.998
49 1   10.479   22.522    6.133
50 1    9.178   26.617    0.078
51 1    8.488   28.931    3.488
52 1    7.612   25.773    7.108
53 1    6.576   31.726    3.425
54 1  -34.687  -20.529  -44.909
55 1  -35.132  -24.227  -42.939
56 1  -36.032  -17.892  -42.930
57 1  -39.426  -18.751  -44.189
58 1    3.271   30.218    8.326
59 1  -42.299  -16.784  -43.454
60 1   -2.391   33.944    7.251
61 1   -0.620   29.907    8.759
62 1   -5.634   34.369    7.555
63 1   -6.590   30.690    8.777
64 1  -11.391   30.311    9.047
