ITEM: TIMESTEP
0
ITEM: NUMBER OF ATOMS
63
ITEM: BOX BOUNDS pp pp pp
-42.4806022644043 43.03339767456055
-34.23619842529297 51.277801513671875
-42.66469955444336 42.849300384521484
ITEM: ATOMS id type xu yu zu
1 1  -38.304  -34.236   28.844
2 1  -39.512  -33.500   25.346
3 1  -40.904  -33.102   31.207
4 1  -40.837  -29.866   28.720
5 1  -42.481  -27.214   29.312
6 1  -42.011  -27.280   33.054
7 1  -38.230  -26.433   33.048
8 1   41.590  -24.906   35.140
9 1  -41.396  -24.623   38.391
10 1  -37.901  -27.181   37.237
11 1   42.534  -25.839   41.325
12 1  -41.367  -23.854  -41.354
13 1   42.354  -19.741  -42.665
14 1  -42.003  -24.776  -37.961
15 1  -41.180  -21.101  -36.753
16 1   40.903  -18.243  -38.814
17 1  -40.844  -20.664  -33.632
18 1  -41.901  -16.809  -33.883
19 1   39.391  -17.660  -35.419
20 1  -42.148  -14.693  -31.056
21 1   40.586  -11.742  -32.798
22 1   37.133  -14.291  -34.070
23 1   39.475   -9.104  -30.898
24 1   36.663   -8.285  -32.930
25 1   34.946  -12.055  -32.011
26 1   34.279   -5.512  -32.094
27 1   30.692   -6.873  -33.178
28 1   30.938  -10.799  -31.336
29 1   27.752   -4.897  -32.136
30 1   25.184   -7.879  -32.968
31 1   27.253  -10.645  -30.255
32 1   24.694  -19.753  -27.713
33 1   26.971  -15.881  -28.541
34 1   25.828  -22.181  -29.719
35 1   26.708  -20.077  -32.854
36 1   29.346  -16.104  -31.289
37 1   27.415  -21.108  -36.174
38 1   27.300  -17.309  -37.505
39 1   30.927  -15.653  -34.639
40 1   27.511  -16.603  -40.863
41 1   29.852  -13.971  -40.506
42 1   32.646  -16.158  -37.869
43 1   31.234  -12.938   41.815
44 1   34.204  -11.023  -41.242
45 1   36.261  -14.500  -39.247
46 1   36.153   -8.889   43.037
47 1   39.061   -9.844  -41.083
48 1   38.642  -13.514  -41.886
49 1   42.086   -8.410  -41.988
50 1   41.295   -4.531  -40.133
51 1   37.121   -3.778  -41.148
52 1  -42.097   -1.370  -41.083
53 1  -39.082   -3.269  -38.446
54 1  -38.323   -6.264  -40.915
55 1  -36.060   -1.130  -37.406
56 1  -33.661   -4.004  -37.557
57 1  -33.492   -5.407  -33.188
58 1  -30.078   -3.457  -38.335
59 1  -28.925   -1.856  -35.275
60 1  -29.973   -5.318  -31.929
61 1  -25.254   -0.702  -34.947
62 1  -24.880   -1.914  -31.243
63 1  -26.791   -6.867  -30.928
ITEM: TIMESTEP
1
ITEM: NUMBER OF ATOMS
63
ITEM: BOX BOUNDS pp pp pp
-17.927860260009766 67.58613586425781
-26.032407760620117 59.481590270996094
-40.41083526611328 45.10316467285156
ITEM: ATOMS id type xu yu zu
1 1   -6.607  -23.178    2.843
2 1   -4.436  -25.662    5.174
3 1   -7.536  -23.637   -0.781
4 1   -6.008  -20.396   -2.252
5 1   -7.217  -19.413   -5.629
6 1   -3.712  -17.814   -7.477
7 1   -3.118  -14.534   -4.959
8 1   -4.297  -16.792  -11.188
9 1   -1.042  -17.876  -12.252
10 1    0.243  -21.703  -10.246
11 1    0.696  -17.117  -15.746
12 1    0.268  -21.241  -16.322
13 1    2.846  -22.057  -12.928
14 1    1.674  -22.860  -19.648
15 1   -2.050  -22.780  -21.902
16 1   -4.320  -18.698  -20.624
17 1   -3.942  -25.298  -22.233
18 1   -5.897  -24.137  -18.925
19 1   -7.205  -20.688  -21.254
20 1   -8.511  -26.032  -17.483
21 1  -10.262  -22.892  -16.169
22 1  -11.189  -20.293  -20.043
23 1  -12.801  -23.308  -13.951
24 1  -14.603  -20.266  -14.991
25 1  -14.927  -21.641  -19.159
26 1   66.544   -9.623  -23.791
27 1   64.989   -7.852  -26.721
28 1   65.573  -10.865  -29.896
29 1   61.581   -6.531  -26.463
30 1   60.923   -6.354  -30.497
31 1   61.874  -10.532  -31.348
32 1   63.669  -15.078  -40.175
33 1   62.901  -13.482  -36.155
34 1  -17.928  -22.703  -31.703
35 1   65.774  -10.205  -40.411
36 1   65.976  -11.244  -35.361
37 1  -16.883  -16.992  -30.376
38 1  -17.460  -15.283  -27.173
39 1  -15.746  -18.566  -23.960
40 1  -16.487  -11.728  -26.429
41 1  -15.962  -12.525  -22.593
42 1  -13.539  -15.796  -23.486
43 1  -14.630   -9.934  -20.327
44 1  -12.734  -12.329  -17.918
45 1  -10.292  -15.538  -20.596
46 1  -11.098  -10.886  -15.539
47 1   -7.732  -10.800  -17.446
48 1   -7.942  -14.865  -17.851
49 1   -4.884   -9.483  -15.938
50 1   -2.770   -8.796  -19.575
51 1   -3.957   -4.215  -20.685
52 1   -3.512  -11.118  -22.401
53 1   -2.944   -8.129  -24.852
54 1   -5.683   -6.209  -23.190
55 1   -3.615   -8.340  -28.472
56 1   -5.203   -5.163  -28.619
57 1   -8.998   -5.820  -26.104
58 1   -6.064   -3.188  -32.170
59 1   -9.412   -5.552  -32.120
60 1  -12.322   -4.757  -28.372
61 1  -11.522   -5.556  -35.293
62 1  -13.810   -7.274  -33.297
63 1  -15.429   -3.956  -29.937
ITEM: TIMESTEP
2
ITEM: NUMBER OF ATOMS
63
ITEM: BOX BOUNDS pp pp pp
-39.57516860961914 45.9388313293457
-43.09538269042969 42.418617248535156
-43.017234802246094 42.49676513671875
ITEM: ATOMS id type xu yu zu
1 1  -28.246  -31.266   22.464
2 1  -27.767  -29.241   19.109
3 1  -31.689  -31.967   23.382
4 1  -33.283  -31.303   20.231
5 1  -36.549  -31.669   20.038
6 1  -36.722  -35.446   18.688
7 1  -32.413  -35.911   17.062
8 1  -39.575  -36.753   16.596
9 1    4.583    4.550  -40.697
10 1    6.404    4.428  -35.871
11 1    6.475    2.830  -43.017
12 1  -33.650  -42.234   16.916
13 1    8.013    1.550  -37.414
14 1  -30.641  -43.095   15.857
15 1   13.365    0.302  -39.121
16 1  -26.155  -42.716   20.982
17 1   13.690   -3.386  -39.188
18 1   13.003   -3.728  -35.355
19 1   14.158   -7.814  -35.125
20 1   14.448   -1.836  -33.347
21 1   14.609   -4.393  -29.900
22 1   16.008   -8.563  -31.655
23 1   16.112   -3.234  -26.679
24 1   16.218   -7.338  -25.457
25 1   18.803   -8.308  -28.925
26 1   17.291   -8.222  -22.273
27 1   18.037  -11.524  -23.317
28 1   20.691  -10.462  -26.001
29 1   19.355  -14.210  -20.837
30 1   21.059  -16.438  -23.556
31 1   23.378  -13.348  -25.017
32 1   28.926  -11.626  -32.925
33 1   25.926  -11.356  -29.736
34 1   28.230  -13.938  -35.768
35 1   25.110  -15.965  -33.691
36 1   22.636  -12.618  -30.881
37 1   22.823  -18.804  -35.119
38 1   19.970  -18.239  -32.312
39 1   19.252  -13.463  -32.134
40 1   17.148  -19.989  -32.508
41 1   15.113  -17.720  -30.630
42 1   15.565  -14.359  -33.248
43 1   11.707  -18.628  -29.394
44 1   10.485  -14.930  -28.433
45 1   11.989  -12.517  -31.874
46 1    7.497  -14.403  -27.680
47 1    7.247  -10.972  -28.845
48 1    8.590  -11.646  -33.249
49 1    3.876   -9.565  -28.742
50 1    2.143  -12.954  -30.416
51 1    5.519  -14.315  -34.020
52 1   -1.051  -13.045  -31.303
53 1   -2.224  -13.133  -28.073
54 1   -3.788   -8.810  -28.263
55 1   -3.969  -15.503  -27.186
56 1   -5.436  -13.592  -24.061
57 1   -6.586   -9.355  -25.325
58 1   -3.476  -13.829  -20.638
59 1   -1.139  -11.305  -21.804
60 1   -4.233   -7.879  -22.525
61 1    1.034  -10.461  -19.525
62 1    1.857   -7.341  -21.364
63 1   -2.460   -4.579  -22.285
ITEM: TIMESTEP
3
ITEM: NUMBER OF ATOMS
63
ITEM: BOX BOUNDS pp pp pp
-11.839064598083496 73.67493438720703
-27.88393783569336 57.630062103271484
-40.494178771972656 45.01982116699219
ITEM: ATOMS id type xu yu zu
1 1    1.155  -27.884   -1.547
2 1    2.460  -25.172   -4.816
3 1   -1.037  -27.017    0.444
4 1   -3.488  -25.145   -2.434
5 1   -6.232  -22.742   -1.431
6 1   -5.673  -19.613   -4.070
7 1   -1.647  -19.349   -3.512
8 1   -7.012  -19.702   -6.910
9 1   -3.952  -18.898   -9.151
10 1   -0.941  -16.482   -6.710
11 1   -4.039  -18.215  -12.565
12 1   -0.856  -19.633  -13.711
13 1    1.351  -16.228  -14.074
14 1   -0.730  -21.861  -16.201
15 1   -1.511  -19.464  -18.677
16 1    2.143  -15.988  -18.693
17 1   -2.040  -20.647  -22.062
18 1   -0.177  -17.504  -24.339
19 1    2.822  -17.612  -22.148
20 1    0.612  -17.871  -27.972
21 1    3.506  -15.338  -28.016
22 1    6.361  -16.632  -24.168
23 1    5.186  -14.942  -30.476
24 1    8.311  -13.004  -28.058
25 1    9.301  -16.727  -26.642
26 1   10.109  -11.094  -29.784
27 1   13.015  -11.470  -27.408
28 1   13.232  -15.504  -27.422
29 1   15.979  -10.229  -28.232
30 1   18.492  -12.506  -25.986
31 1   17.143  -15.880  -27.218
32 1   16.757  -26.110  -24.941
33 1   16.324  -21.340  -26.276
34 1   14.817  -27.044  -22.179
35 1   15.819  -23.389  -20.726
36 1   13.819  -19.873  -23.957
37 1   14.877  -22.299  -17.446
38 1   15.040  -18.407  -17.970
39 1   11.979  -18.534  -21.224
40 1   13.828  -16.296  -15.565
41 1   13.451  -13.313  -18.289
42 1   10.322  -15.711  -19.550
43 1   12.572   -9.885  -17.571
44 1    9.774   -9.895  -20.591
45 1    6.902  -13.434  -20.306
46 1    8.503   -6.887  -21.767
47 1    4.314   -8.199  -22.333
48 1    4.631  -10.772  -19.428
49 1    1.423   -5.862  -22.599
50 1   -1.258   -9.143  -22.286
51 1   -0.493  -11.192  -17.845
52 1   -4.968   -8.698  -22.830
53 1   -4.190   -6.683  -25.979
54 1   -2.365   -9.689  -27.487
55 1   -6.748   -4.843  -27.624
56 1   -4.501   -3.542  -31.172
57 1   -6.603    0.340  -32.005
58 1   -4.152   -5.431  -33.601
59 1   -7.252   -4.617  -35.814
60 1   -8.408    0.259  -35.480
61 1   -7.547   -5.690  -39.122
62 1   -9.378   -2.105  -40.494
63 1  -11.839    1.052  -36.940
ITEM: TIMESTEP
4
ITEM: NUMBER OF ATOMS
63
ITEM: BOX BOUNDS pp pp pp
-13.5083589553833 72.0056381225586
-27.00516128540039 58.50883865356445
-32.3067512512207 53.20724868774414
ITEM: ATOMS id type xu yu zu
1 1   -8.369  -23.851   -9.027
2 1   -5.186  -23.378  -12.017
3 1   -8.466  -21.398   -6.696
4 1   -4.963  -21.533   -5.616
5 1   -3.572  -18.615   -3.348
6 1    0.173  -18.904   -5.609
7 1    1.540  -16.021   -2.563
8 1    1.878  -22.339   -5.465
9 1    4.234  -22.100   -8.344
10 1    2.835  -18.540  -10.697
11 1    5.974  -24.880  -10.274
12 1    3.586  -25.202  -13.566
13 1    3.318  -20.909  -13.536
14 1    4.420  -27.005  -16.229
15 1    2.439  -24.711  -19.141
16 1    3.725  -20.154  -17.905
17 1    2.614  -25.581  -23.177
18 1    2.413  -21.764  -24.679
19 1    4.825  -20.097  -21.364
20 1    4.044  -20.886  -28.030
21 1    4.494  -17.328  -27.551
22 1    7.444  -17.414  -23.571
23 1    5.475  -15.452  -30.293
24 1    7.691  -13.001  -28.331
25 1    9.430  -16.444  -26.450
26 1    9.308  -11.066  -30.008
27 1   12.930  -11.154  -27.609
28 1   13.388  -15.362  -27.008
29 1   15.687   -9.787  -28.754
30 1   14.709  -11.352  -32.307
31 1   14.031  -15.089  -30.972
32 1   21.222  -21.990  -24.085
33 1   17.405  -19.572  -25.453
34 1   21.889  -20.639  -21.101
35 1   18.144  -20.943  -19.773
36 1   15.147  -18.634  -22.578
37 1   16.971  -19.955  -16.154
38 1   15.282  -16.382  -17.302
39 1   12.189  -17.425  -21.064
40 1   13.236  -14.339  -14.649
41 1   11.561  -12.297  -17.356
42 1    9.802  -15.965  -18.500
43 1    9.372   -9.594  -16.611
44 1    6.368  -10.407  -19.602
45 1    5.726  -14.834  -19.089
46 1    3.516   -8.091  -19.438
47 1    0.892  -11.259  -20.556
48 1    2.671  -14.230  -17.463
49 1    0.853  -12.157  -24.409
50 1   -3.214  -11.572  -24.984
51 1   -4.443   -7.088  -22.716
52 1   -5.024  -11.922  -28.468
53 1   -7.664   -8.700  -28.155
54 1   -4.530   -5.856  -29.001
55 1  -10.395   -8.265  -30.265
56 1  -10.933   -4.440  -29.467
57 1   -6.828   -2.467  -29.202
58 1  -13.508   -2.269  -31.353
59 1  -11.962    0.824  -30.413
60 1   -7.770    0.080  -31.813
61 1  -13.393    4.340  -31.339
62 1  -10.354    6.207  -30.660
63 1   -6.985    3.577  -32.234
ITEM: TIMESTEP
5
ITEM: NUMBER OF ATOMS
63
ITEM: BOX BOUNDS pp pp pp
-64.41223907470703 21.101760864257812
-57.535980224609375 27.97801971435547
-56.61021423339844 28.903785705566406
ITEM: ATOMS id type xu yu zu
1 1  -51.866  -49.738  -56.610
2 1  -49.087  -50.021  -54.132
3 1  -64.412  -57.536   24.195
4 1   -1.011   -7.564   38.070
5 1   -3.776   -5.979   38.910
6 1   -6.108   -8.866   37.510
7 1   -4.461  -11.979   39.311
8 1   -9.215   -8.652   37.835
9 1   -9.473  -12.472   39.595
10 1    8.068   -4.620  -40.834
11 1    1.140   -5.483  -43.209
12 1    2.562   -8.236  -41.242
13 1    4.941   -5.936  -39.259
14 1    0.508  -10.652  -39.449
15 1    3.370  -11.338  -36.510
16 1    1.065  -11.102  -32.511
17 1    4.945  -14.215  -36.690
18 1    1.325  -15.601  -37.626
19 1   -0.681  -12.952  -34.983
20 1    0.644  -18.638  -36.854
21 1    3.421  -19.540  -34.902
22 1    6.271  -20.410  -37.930
23 1    4.907  -17.255  -32.516
24 1    8.288  -19.385  -32.020
25 1    9.857  -16.763  -29.330
26 1    8.544  -22.701  -31.082
27 1   10.854  -22.084  -28.208
28 1    8.667  -19.232  -26.210
29 1   11.640  -24.867  -26.305
30 1   10.936  -27.553  -29.594
31 1   14.048  -29.954  -28.997
32 1   13.967  -15.114  -13.274
33 1   17.035  -17.400  -15.244
34 1   14.538  -11.659  -13.251
35 1   15.908  -11.332  -17.253
36 1   12.555  -13.198  -20.790
37 1   16.824   -7.588  -18.730
38 1   16.419   -8.675  -22.751
39 1   12.401  -10.144  -23.308
40 1   18.797  -11.068  -24.353
41 1   16.931  -10.675  -27.834
42 1   13.389  -11.813  -26.426
43 1   17.352   -7.620  -30.070
44 1   13.059   -7.163  -30.718
45 1   10.962  -10.943  -29.786
46 1   11.441   -4.494  -29.178
47 1    7.806   -4.927  -30.120
48 1    7.917   -8.990  -28.938
49 1    5.205   -2.843  -28.294
50 1    3.018   -5.526  -27.579
51 1    5.517   -9.134  -25.531
52 1    0.345   -4.847  -25.858
53 1    0.390   -7.689  -23.156
54 1    2.202  -11.108  -25.270
55 1    1.951   -7.048  -19.699
56 1    2.280  -10.903  -18.905
57 1    4.311  -13.238  -22.300
58 1    3.513  -11.661  -15.876
59 1    3.720  -15.389  -16.449
60 1    3.946  -16.832  -21.230
61 1    5.575  -17.690  -14.015
62 1    5.025  -20.680  -16.810
63 1    7.082  -18.868  -20.812
ITEM: TIMESTEP
6
ITEM: NUMBER OF ATOMS
63
ITEM: BOX BOUNDS pp pp pp
-25.978219985961914 59.53578186035156
-41.77595520019531 43.73804473876953
-56.234031677246094 29.27996826171875
ITEM: ATOMS id type xu yu zu
1 1   -4.777   19.610   33.762
2 1   -8.676   17.789   34.558
3 1   -1.888   18.661   35.603
4 1   -9.416  -29.238  -31.193
5 1   -6.542  -28.788  -29.464
6 1   -6.707  -32.114  -26.753
7 1  -10.522  -31.996  -26.394
8 1   -4.947  -35.190  -26.948
9 1   -6.960  -37.163  -25.244
10 1   -7.180  -34.756  -21.050
11 1   -5.949  -40.184  -24.511
12 1   -6.010  -39.381  -20.380
13 1   -3.740  -35.812  -20.767
14 1   -4.905  -41.776  -18.055
15 1   -2.092  -39.510  -16.436
16 1    1.071  -38.744  -19.827
17 1   -0.193  -40.608  -13.247
18 1    2.889  -38.076  -13.658
19 1    4.076  -39.513  -17.846
20 1    5.802  -37.717  -11.167
21 1    3.609  -37.501   -8.071
22 1    0.537  -41.030   -7.924
23 1    5.524  -36.549   -4.617
24 1    3.384  -39.400   -2.181
25 1    0.140  -39.458   -4.610
26 1   36.690   21.776  -48.779
27 1   40.415   22.337  -48.096
28 1   39.583   22.823  -43.947
29 1   42.896   19.628  -48.898
30 1   41.818   16.889  -46.311
31 1   38.343   18.941  -44.796
32 1   28.733   18.820  -42.962
33 1   28.286   18.183  -48.030
34 1   28.739   22.321  -42.334
35 1   31.145   23.107  -44.749
36 1   28.712   21.737  -49.049
37 1   31.772   27.052  -45.288
38 1   -0.622  -34.618    0.603
39 1   28.973   24.390  -51.278
40 1    0.734  -31.599   -1.705
41 1   -0.171  -33.220   -4.963
42 1   -4.265  -33.918   -4.002
43 1    0.506  -31.827   -7.483
44 1   -2.953  -30.026   -8.635
45 1   -6.189  -32.560   -7.623
46 1   -3.601  -28.959  -11.673
47 1   -7.018  -27.195  -11.288
48 1   -8.627  -31.330  -10.486
49 1   -8.932  -25.756  -14.011
50 1  -12.412  -27.676  -13.647
51 1  -12.452  -28.604   -9.258
52 1  -15.258  -25.810  -14.582
53 1  -17.399  -27.810  -12.733
54 1  -15.518  -26.782   -8.757
55 1  -21.075  -26.660  -13.292
56 1  -22.839  -28.902  -10.712
57 1  -20.462  -29.272   -6.637
58 1  -25.978  -27.982   -9.972
59 1    7.423   30.574  -56.234
60 1   11.086   31.294  -53.179
61 1    4.472   30.071  -54.208
62 1    6.414   29.240  -50.306
63 1    9.795   32.184  -49.668
ITEM: TIMESTEP
7
ITEM: NUMBER OF ATOMS
63
ITEM: BOX BOUNDS pp pp pp
-13.829587936401367 71.68441009521484
-26.48614501953125 59.027854919433594
-36.366432189941406 49.14756774902344
ITEM: ATOMS id type xu yu zu
1 1   -0.615  -20.345    4.489
2 1   -2.614  -17.876    1.950
3 1    1.204  -22.639    2.889
4 1   -1.054  -22.459   -0.901
5 1   -0.134  -24.653   -3.381
6 1   -2.124  -22.859   -6.110
7 1    0.844  -19.943   -7.475
8 1   -3.293  -25.157   -9.091
9 1   -3.845  -22.590  -11.567
10 1    0.232  -20.685  -11.600
11 1   -5.235  -23.053  -14.434
12 1   -4.303  -19.469  -15.893
13 1   -0.545  -19.807  -14.904
14 1   -4.940  -19.136  -19.652
15 1   -2.758  -16.195  -20.283
16 1    1.363  -17.824  -18.505
17 1   -2.400  -15.418  -23.629
18 1    0.740  -18.037  -24.406
19 1    3.070  -16.654  -21.472
20 1    2.513  -18.026  -27.627
21 1    4.672  -15.125  -27.524
22 1    6.576  -15.101  -23.529
23 1    7.563  -15.414  -30.375
24 1   10.237  -13.692  -28.433
25 1    9.528  -16.367  -25.483
26 1   13.358  -13.389  -30.050
27 1   15.191  -12.992  -26.894
28 1   14.051  -17.097  -25.830
29 1   18.873  -12.423  -27.320
30 1   19.801  -13.552  -24.261
31 1   17.505  -17.166  -23.608
32 1   13.995  -26.486  -20.678
33 1   13.749  -22.674  -23.973
34 1   12.800  -25.907  -17.273
35 1   14.228  -22.220  -16.999
36 1   12.997  -20.164  -21.491
37 1   13.390  -20.108  -14.512
38 1   14.454  -16.822  -16.154
39 1   11.623  -16.870  -19.992
40 1   14.026  -13.336  -14.758
41 1   12.885  -11.505  -17.993
42 1    9.863  -13.919  -18.812
43 1   11.227   -8.083  -17.264
44 1    8.645   -8.328  -20.424
45 1    5.977  -11.858  -19.516
46 1    6.766   -5.126  -21.297
47 1    3.735   -6.802  -22.552
48 1    2.101   -3.463  -24.579
49 1    3.709  -10.403  -24.479
50 1    0.278   -9.118  -26.777
51 1    1.463   -5.070  -28.501
52 1   -1.290  -10.810  -29.395
53 1   -1.480   -7.739  -31.501
54 1   -3.717   -9.911  -34.550
55 1   -3.022   -4.919  -29.841
56 1   -4.477   -3.141  -32.909
57 1   -5.815   -6.819  -36.366
58 1   -7.101   -0.924  -32.653
59 1  -10.001   -3.538  -32.284
60 1   -8.705   -8.019  -34.086
61 1  -13.038   -2.915  -32.532
62 1  -13.830   -6.035  -34.160
63 1  -11.607   -9.410  -32.175
ITEM: TIMESTEP
8
ITEM: NUMBER OF ATOMS
63
ITEM: BOX BOUNDS pp pp pp
-18.474018096923828 67.03997802734375
-25.61667251586914 59.8973274230957
-31.330949783325195 54.18305206298828
ITEM: ATOMS id type xu yu zu
1 1  -13.190  -15.867  -13.157
2 1   -9.963  -15.115  -15.092
3 1  -12.886  -16.874   -9.799
4 1   -8.604  -18.023  -10.084
5 1   -6.708  -19.261   -7.248
6 1   -3.233  -17.631   -8.339
7 1   -0.983  -21.276   -7.913
8 1   -3.219  -15.965  -11.446
9 1    0.896  -16.397  -12.307
10 1    1.532  -20.583  -11.256
11 1    2.033  -16.020  -15.584
12 1   -0.504  -18.310  -16.775
13 1    1.404  -21.131  -14.783
14 1   -0.862  -19.131  -20.141
15 1    3.207  -19.650  -20.647
16 1    3.761  -23.213  -17.919
17 1    4.545  -20.429  -23.979
18 1    8.345  -21.224  -22.314
19 1    6.686  -24.168  -20.386
20 1   10.386  -19.162  -20.939
21 1   13.208  -21.417  -20.395
22 1   11.223  -25.617  -18.863
23 1   16.351  -20.261  -18.895
24 1   17.280  -17.532  -21.474
25 1   15.486  -19.430  -24.215
26 1   20.475  -16.236  -21.971
27 1   20.748  -17.448  -25.839
28 1   19.036  -21.487  -24.790
29 1   23.919  -17.906  -27.546
30 1   25.010  -21.245  -25.343
31 1   22.131  -23.489  -26.451
32 1   22.234   -9.569  -28.665
33 1   19.040   -6.753  -30.642
34 1   21.231  -10.678  -25.159
35 1   18.753   -7.914  -24.001
36 1   16.479   -5.889  -28.157
37 1   16.209   -9.016  -21.899
38 1   12.857   -6.932  -22.835
39 1   13.011   -5.054  -27.558
40 1    9.306   -7.350  -20.941
41 1    7.760  -10.355  -23.117
42 1   10.402  -13.404  -20.955
43 1    7.976  -10.528  -26.777
44 1    4.649  -13.091  -26.935
45 1    0.781  -10.356  -27.135
46 1    3.964  -15.325  -24.606
47 1    1.467  -12.500  -22.637
48 1   -0.893  -13.264  -25.513
49 1    0.290  -13.092  -18.900
50 1   -3.202  -11.620  -19.610
51 1   -4.789  -14.864  -22.948
52 1   -5.130  -10.498  -17.162
53 1   -8.554  -10.121  -19.454
54 1   -7.091  -11.733  -22.716
55 1  -12.227  -11.755  -18.548
56 1  -13.264   -9.003  -21.395
57 1  -10.218   -8.838  -24.606
58 1  -16.525   -9.003  -22.497
59 1  -15.790   -6.854  -26.074
60 1  -11.634   -7.300  -27.820
61 1  -18.474   -6.813  -28.953
62 1  -16.001   -6.715  -31.331
63 1  -12.836   -9.901  -29.953
ITEM: TIMESTEP
9
ITEM: NUMBER OF ATOMS
63
ITEM: BOX BOUNDS pp pp pp
-17.7882080078125 67.72579193115234
-39.68407440185547 45.829925537109375
-42.00794219970703 43.50605773925781
ITEM: ATOMS id type xu yu zu
1 1    2.568  -29.525   36.589
2 1    3.786  -27.140   33.071
3 1   -0.060  -28.116   39.074
4 1   -2.503  -31.177   38.474
5 1   -4.806  -32.740   41.184
6 1   -9.401   -8.849  -37.919
7 1  -10.741   -7.289  -33.933
8 1   -6.505   -8.097  -38.972
9 1   -5.170   -5.828  -35.622
10 1   -7.422   -7.581  -31.391
11 1   -2.102   -4.867  -35.221
12 1   -2.430   -3.564  -31.708
13 1   -3.870   -7.146  -30.495
14 1    0.468   -2.112  -29.832
15 1   -1.700   -1.801  -26.922
16 1   -2.876   -6.262  -26.220
17 1    0.075   -0.320  -23.929
18 1    2.047   -3.410  -22.998
19 1   -1.840   -5.816  -22.700
20 1    3.807   -3.192  -20.235
21 1    6.435   -6.375  -20.827
22 1    5.479   -7.885  -25.459
23 1    9.693   -5.971  -20.562
24 1    9.868   -5.235  -24.211
25 1    9.102   -8.831  -25.238
26 1   12.768   -3.945  -25.134
27 1   14.570   -7.197  -24.057
28 1   12.989   -9.119  -27.224
29 1   18.615   -7.942  -23.864
30 1   18.362  -11.813  -23.806
31 1   14.465  -12.046  -24.934
32 1   16.984  -18.790  -31.207
33 1   14.279  -19.294  -35.263
34 1   19.624  -15.981  -31.741
35 1   17.943  -14.830  -34.541
36 1   17.219  -18.223  -37.202
37 1   18.951  -12.172  -36.828
38 1   15.622  -11.538  -38.403
39 1   15.090  -15.992  -40.004
40 1   15.541   -9.601  -41.805
41 1   12.116  -10.428  -42.008
42 1   12.302  -14.194  -41.377
43 1   18.329  -34.431   36.657
44 1   15.577  -37.054   36.677
45 1    7.754  -13.851  -40.314
46 1   12.141  -36.085   35.748
47 1   10.561  -39.423   37.245
48 1    4.127  -13.668  -40.416
49 1    7.260  -39.684   37.151
50 1   -0.768  -17.643  -41.641
51 1   -0.401  -15.305  -38.135
52 1   -3.656  -19.871  -41.375
53 1   -4.356  -18.509  -37.944
54 1   -4.090  -14.498  -39.493
55 1   -7.352  -19.529  -35.896
56 1   -6.922  -16.955  -33.517
57 1   -5.567  -13.098  -35.505
58 1   -9.294  -16.701  -30.874
59 1  -12.084  -14.982  -32.996
60 1  -14.477  -18.210  -35.584
61 1  -14.165  -13.064  -31.732
62 1  -16.879  -14.253  -34.359
63 1  -17.788  -18.537  -33.686
