ITEM: TIMESTEP
0
ITEM: NUMBER OF ATOMS
63
ITEM: BOX BOUNDS pp pp pp
-42.37350082397461 43.140499114990234
-11.649900436401367 73.86409759521484
-30.673799514770508 54.84020233154297
ITEM: ATOMS id type xu yu zu
1 1   29.909   23.512  -28.410
2 1   30.741   24.139  -24.506
3 1   32.233   21.551  -30.674
4 1   35.405   22.727  -28.692
5 1   34.406   22.239  -24.284
6 1   38.383   21.851  -29.774
7 1   39.871   21.188  -25.795
8 1   36.867   19.328  -24.548
9 1  -42.374   19.399  -25.455
10 1   42.005   18.107  -21.995
11 1   37.926   16.012  -22.723
12 1  -41.252   16.523  -20.047
13 1   41.278   14.617  -18.218
14 1   39.605   12.926  -21.532
15 1   41.303   12.917  -15.625
16 1   42.533    9.806  -17.247
17 1   42.417    6.244  -15.920
18 1   40.797    7.365  -12.800
19 1   38.801   10.411  -14.045
20 1   39.652    4.832  -10.236
21 1   36.936    7.370   -8.074
22 1   34.879    9.752  -11.257
23 1   34.883    6.104   -5.686
24 1   32.804    8.836   -6.335
25 1   31.705    7.951  -10.480
26 1   29.711    9.142   -3.967
27 1   26.968    8.318   -6.322
28 1   28.923    4.683   -9.149
29 1   23.694    7.481   -4.911
30 1   22.185    5.500   -8.066
31 1   25.515    3.627   -8.246
32 1  -41.555  -11.405  -16.035
33 1  -39.187  -11.650  -20.085
34 1   42.121   -7.818  -15.598
35 1  -40.957   -5.993  -18.491
36 1  -41.819   -9.061  -21.032
37 1  -41.868   -2.503  -19.555
38 1  -41.270   -3.321  -23.613
39 1   41.458   -6.888  -24.518
40 1  -41.639   -0.839  -26.069
41 1   39.861   -0.733  -25.981
42 1   39.789   -4.997  -27.357
43 1   38.955    1.712  -28.041
44 1   35.639    1.920  -26.697
45 1   36.918    3.501  -22.429
46 1   33.241    3.642  -28.152
47 1   31.536    4.952  -24.849
48 1   35.450    6.455  -23.732
49 1   28.561    7.403  -24.299
50 1   29.710    8.540  -21.323
51 1   34.167   10.827  -22.254
52 1   27.758   10.734  -19.427
53 1   31.005   12.521  -17.678
54 1   32.746   13.910  -20.808
55 1   30.759   14.791  -14.941
56 1   34.451   16.434  -15.274
57 1   34.453   17.673  -19.710
58 1   35.243   19.573  -13.182
59 1   37.674   21.073  -16.044
60 1   34.690   21.296  -18.871
61 1   38.981   24.592  -15.280
62 1   38.840   25.442  -19.433
63 1   34.589   25.121  -20.770
ITEM: TIMESTEP
1
ITEM: NUMBER OF ATOMS
63
ITEM: BOX BOUNDS pp pp pp
-14.086166381835938 71.4278335571289
-7.421291351318359 78.09271240234375
-56.43268585205078 29.081314086914062
ITEM: ATOMS id type xu yu zu
1 1   28.995   -3.288   55.585
2 1   63.395   25.248  -14.788
3 1   31.297   -4.786   57.305
4 1   -1.933    3.901  -56.433
5 1   64.479   25.135  -10.779
6 1    0.919    3.829  -53.678
7 1   -0.945    6.570  -51.975
8 1   -4.124    4.533  -51.376
9 1    0.334    7.918  -49.405
10 1   -3.352    8.768  -47.900
11 1   -5.205    4.871  -47.519
12 1   -3.609   10.525  -45.165
13 1   -7.063    9.130  -43.908
14 1   -5.854    5.514  -43.836
15 1   -8.818   10.503  -41.120
16 1   -8.197    6.862  -38.812
17 1   -8.750    7.235  -35.467
18 1  -10.900    3.297  -35.329
19 1  -11.641    3.416  -31.405
20 1   56.973   23.231    6.251
21 1   56.335   19.880    7.287
22 1  -14.086    0.010  -31.860
23 1   52.965   18.472    6.504
24 1   53.908   15.231    8.988
25 1   53.536   17.653   11.939
26 1   51.708   12.427    9.126
27 1   50.673   12.699   13.011
28 1   53.642   14.275   15.421
29 1   49.037   10.359   14.460
30 1   46.563   12.642   16.579
31 1   49.685   14.817   18.241
32 1   11.110   -2.289  -27.348
33 1   10.208   -2.624  -31.660
34 1    9.041   -4.014  -25.612
35 1    5.682   -2.191  -27.236
36 1    6.626   -3.692  -31.616
37 1    2.774   -3.021  -26.318
38 1    1.486   -3.101  -30.224
39 1    3.809   -7.077  -32.103
40 1    1.423   -0.465  -31.858
41 1   -1.332   -2.194  -34.086
42 1    0.686   -0.394  -37.582
43 1   -1.540   -5.670  -34.380
44 1   -3.945   -5.093  -38.130
45 1   -2.159   -1.262  -40.677
46 1   -4.312   -7.421  -40.484
47 1   -7.397   -5.506  -41.732
48 1   -5.532   -1.431  -42.007
49 1   61.785   13.950   -1.416
50 1   59.686   17.332   -1.005
51 1   -7.856    0.164  -45.171
52 1   57.185   17.567   -2.935
53 1   57.349   21.604   -2.550
54 1   60.572   21.764   -4.544
55 1   54.608   23.894   -4.136
56 1   56.956   26.701   -4.255
57 1   61.162   25.630   -6.416
58 1   56.235   30.237   -4.742
59 1   59.493   31.662   -6.132
60 1   60.586   28.333   -8.807
61 1   59.702   34.907   -8.506
62 1   62.800   33.954  -10.224
63 1   62.149   30.227  -12.600
ITEM: TIMESTEP
2
ITEM: NUMBER OF ATOMS
63
ITEM: BOX BOUNDS pp pp pp
4.980222702026367 90.49422454833984
-6.788914680480957 78.72508239746094
-35.92680358886719 49.587196350097656
ITEM: ATOMS id type xu yu zu
1 1   29.084   -1.730  -22.145
2 1   30.144    2.056  -19.893
3 1   25.598   -1.968  -23.410
4 1   24.004    0.360  -20.205
5 1   26.459    4.399  -19.865
6 1   20.476    1.039  -20.543
7 1   20.841    4.466  -19.307
8 1   23.976    6.127  -21.754
9 1   18.032    6.382  -18.991
10 1   19.538    9.901  -18.839
11 1   22.808    9.847  -22.722
12 1   17.589   12.851  -18.994
13 1   20.054   15.102  -20.709
14 1   20.772   12.620  -24.161
15 1   18.971   18.530  -21.343
16 1   23.034   19.863  -22.288
17 1   23.857   23.360  -22.921
18 1   26.972   22.479  -24.209
19 1   25.373   19.778  -27.377
20 1   29.190   25.191  -25.203
21 1   28.877   24.550  -29.170
22 1   24.790   25.501  -29.601
23 1   30.820   26.003  -31.437
24 1   28.197   25.940  -34.088
25 1   25.825   28.690  -31.273
26 1   40.722   -6.789   39.849
27 1   37.088   -5.252   39.311
28 1   36.044   -2.690   43.653
29 1   35.834   -4.099   36.528
30 1   33.272   -1.994   37.856
31 1   32.983   -3.801   41.698
32 1    4.980   10.558  -25.642
33 1    7.387   11.541  -29.575
34 1    7.495    9.100  -23.422
35 1    9.051    6.918  -25.939
36 1   10.450    9.659  -28.761
37 1   11.700    4.309  -25.064
38 1   12.797    3.557  -28.471
39 1   13.549    7.840  -30.979
40 1   15.322    1.613  -29.215
41 1   16.439    4.025  -32.137
42 1   16.983    7.647  -29.602
43 1   18.989    3.039  -34.272
44 1   21.005    6.773  -33.822
45 1   21.118    7.485  -29.195
46 1   23.510    7.562  -35.927
47 1   24.943   10.668  -34.116
48 1   23.253    9.769  -31.008
49 1   28.847   10.756  -34.009
50 1   29.099   13.063  -30.892
51 1   25.029   12.390  -28.309
52 1   32.178   12.676  -29.068
53 1   30.871   14.174  -26.086
54 1   27.609   11.168  -26.070
55 1   33.169   14.897  -23.115
56 1   30.437   13.886  -20.110
57 1   27.955    9.896  -21.005
58 1   31.877   14.151  -16.817
59 1   28.951   11.980  -15.218
60 1   29.254    8.818  -17.899
61 1   28.776   11.345  -11.809
62 1   26.433    7.849  -11.972
63 1   28.328    5.540  -15.471
ITEM: TIMESTEP
3
ITEM: NUMBER OF ATOMS
63
ITEM: BOX BOUNDS pp pp pp
-19.491552352905273 66.02244567871094
-18.52145767211914 66.99253845214844
-47.55835723876953 37.95564270019531
ITEM: ATOMS id type xu yu zu
1 1   31.697   26.199  -30.684
2 1   34.675   25.139  -27.509
3 1   33.383   26.936  -33.423
4 1   36.916   28.253  -31.844
5 1   38.867   24.868  -29.422
6 1   39.844   29.816  -33.969
7 1   42.591   29.053  -31.350
8 1   42.050   25.040  -31.315
9 1   46.267   29.791  -32.347
10 1   47.791   26.743  -29.864
11 1   45.573   23.158  -31.667
12 1   51.272   26.282  -29.326
13 1   51.069   22.192  -28.575
14 1   48.835   21.309  -32.500
15 1   53.918   20.158  -28.185
16 1   55.790   22.824  -26.350
17 1   -8.262   -9.821   16.880
18 1   -6.392   -7.381   15.137
19 1   -9.268   -4.270   16.820
20 1   -3.518   -7.263   15.585
21 1   -2.958   -5.462   11.875
22 1   -5.164   -9.342    9.219
23 1   -0.062   -4.386   10.849
24 1    0.125   -6.531    7.870
25 1   -4.246   -6.365    7.071
26 1    2.696   -5.792    5.065
27 1    0.822   -7.633    1.968
28 1   -3.494   -6.825    3.126
29 1    1.050   -6.260   -1.335
30 1    0.709   -2.578   -0.088
31 1    4.346   -2.213    0.578
32 1  -12.695  -12.826   -3.199
33 1  -16.567  -11.267   -2.714
34 1  -13.078  -15.752   -4.598
35 1  -14.070  -13.968   -8.333
36 1  -17.004  -11.083   -6.254
37 1  -15.485  -15.611  -10.831
38 1  -18.697  -15.177   -9.676
39 1  -18.556  -18.521   -6.825
40 1  -19.492  -12.247   -7.800
41 1   44.513   17.688  -47.558
42 1   46.902   14.965  -45.725
43 1   42.833   20.108  -45.673
44 1   41.573   17.270  -43.338
45 1   45.562   15.926  -41.748
46 1   39.049   17.633  -40.625
47 1   40.160   14.858  -38.729
48 1   43.980   16.090  -38.221
49 1   38.471   13.680  -35.428
50 1   42.361   12.595  -33.689
51 1   45.180   16.715  -34.334
52 1   42.123   11.960  -30.424
53 1   44.682   14.063  -29.061
54 1   43.430   17.663  -31.330
55 1   44.862   14.504  -25.208
56 1   46.236   18.019  -25.227
57 1   43.156   20.795  -28.178
58 1   46.228   19.635  -22.387
59 1   45.317   23.385  -23.777
60 1   41.633   22.934  -25.390
61 1   45.853   26.352  -22.016
62 1   44.062   28.610  -24.996
63 1   39.564   26.727  -25.545
ITEM: TIMESTEP
4
ITEM: NUMBER OF ATOMS
63
ITEM: BOX BOUNDS pp pp pp
-11.391249656677246 74.12274932861328
-14.000038146972656 71.51396179199219
-46.58567810058594 38.928321838378906
ITEM: ATOMS id type xu yu zu
1 1   50.459   29.926  -24.471
2 1   54.268   28.357  -25.933
3 1   48.727   32.007  -26.773
4 1   51.743   33.640  -27.990
5 1   54.641   29.640  -29.928
6 1   51.837   36.327  -30.513
7 1   55.838   35.032  -31.804
8 1   54.936   31.602  -32.968
9 1   -2.651   -9.066    5.558
10 1   -0.446  -11.677    4.433
11 1   56.677   31.691  -36.706
12 1    2.526  -10.621    2.030
13 1    1.974  -13.804   -0.366
14 1   -1.912  -13.154   -0.436
15 1    3.500  -13.861   -3.219
16 1    1.739  -11.214   -4.566
17 1    2.530   -9.424   -7.452
18 1    1.140   -6.158   -6.266
19 1    3.838   -5.609   -2.822
20 1    0.973   -3.344   -8.363
21 1    0.115   -0.993   -5.060
22 1    4.408   -1.168   -2.919
23 1   -0.854    2.228   -5.351
24 1   -0.294    3.122   -1.147
25 1    3.990    2.275   -1.187
26 1   -1.546    6.372   -0.350
27 1   -0.011    6.036    3.410
28 1    3.013    2.370    3.010
29 1    2.017    8.571    4.312
30 1    3.486    6.461    7.602
31 1    5.457    4.350    4.842
32 1   -0.427  -11.507  -22.907
33 1   -2.895  -14.000  -19.519
34 1    0.572   -8.280  -21.607
35 1   -1.747   -8.783  -18.827
36 1   -0.135  -12.484  -17.402
37 1   -2.028   -6.001  -16.157
38 1   -5.249   -7.504  -14.540
39 1   -4.087  -12.139  -13.476
40 1   -6.973   -5.772  -11.801
41 1   -9.097   -8.621  -10.651
42 1   -5.725  -10.952  -10.160
43 1  -11.391   -8.067   -8.165
44 1   48.677   34.788  -46.586
45 1   -7.173  -12.835   -6.639
46 1   46.355   33.243  -44.274
47 1   48.603   29.725  -44.233
48 1   52.195   31.902  -42.905
49 1   47.629   26.512  -42.334
50 1   51.480   25.397  -41.710
51 1   53.809   28.968  -40.218
52 1   52.592   22.037  -40.426
53 1   55.677   22.892  -39.166
54 1   54.317   26.310  -37.750
55 1   58.185   20.609  -36.870
56 1   60.121   23.703  -36.046
57 1   57.200   26.757  -33.874
58 1   63.229   23.397  -34.532
59 1   63.223   26.867  -33.161
60 1   59.559   26.875  -30.893
61 1   66.122   28.110  -31.819
62 1   64.401   30.950  -29.278
63 1   59.873   29.352  -27.235
ITEM: TIMESTEP
5
ITEM: NUMBER OF ATOMS
63
ITEM: BOX BOUNDS pp pp pp
2.0369462966918945 87.55094909667969
-5.120506763458252 80.39349365234375
-32.24562072753906 53.26837921142578
ITEM: ATOMS id type xu yu zu
1 1   35.042   20.361  -32.246
2 1   31.626   22.273  -30.557
3 1   36.676   18.610  -30.048
4 1   36.056   20.736  -26.522
5 1   31.433   20.885  -26.555
6 1   37.287   19.900  -23.519
7 1   34.107   20.795  -21.607
8 1   31.219   18.658  -23.731
9 1   33.882   20.231  -17.560
10 1   30.204   20.584  -17.369
11 1   28.634   17.388  -20.667
12 1   28.635   20.321  -14.152
13 1   28.687   16.234  -13.660
14 1   27.330   15.246  -17.744
15 1   26.838   14.558  -10.712
16 1   29.041   11.324  -11.305
17 1   29.008    9.550  -14.612
18 1   30.389    6.325  -13.120
19 1   27.925    6.650   -8.961
20 1   30.068    3.316  -14.999
21 1   29.166    1.474  -12.031
22 1   25.082    3.602  -11.285
23 1   29.238   -2.325  -11.992
24 1   26.781   -3.206   -9.716
25 1   24.735    0.271  -10.106
26 1   27.496   -4.462   -6.032
27 1   27.294   -0.687   -4.727
28 1   31.247    1.248   -6.691
29 1   27.301   -0.042   -1.414
30 1   28.159    3.633   -1.840
31 1   32.224    2.596   -3.505
32 1    4.048   -5.121  -20.894
33 1    2.037   -1.640  -17.843
34 1    6.911   -4.184  -22.151
35 1    6.693   -0.180  -22.199
36 1    5.372   -0.171  -18.572
37 1    9.387    1.861  -23.162
38 1   11.984    1.181  -20.797
39 1    9.650   -0.107  -17.334
40 1   14.474    3.492  -19.875
41 1   16.298    0.731  -18.250
42 1   12.829   -0.654  -15.869
43 1   19.618    1.270  -16.673
44 1   21.470    1.876  -19.825
45 1   18.236    1.610  -23.099
46 1   23.744    4.569  -20.379
47 1   22.854    4.285  -24.371
48 1   18.823    5.158  -23.957
49 1   24.341    6.102  -26.929
50 1   22.632    9.307  -25.835
51 1   26.344   11.449  -23.372
52 1   21.318   11.322  -27.874
53 1   20.762   14.440  -25.321
54 1   25.239   14.735  -24.924
55 1   19.552   17.388  -27.077
56 1   21.288   19.680  -24.329
57 1   25.888   19.051  -25.086
58 1   20.526   23.349  -24.537
59 1   24.081   23.819  -22.545
60 1   26.306   22.622  -25.543
61 1   24.902   27.102  -21.550
62 1   28.761   26.092  -21.369
63 1   29.833   24.880  -26.023
ITEM: TIMESTEP
6
ITEM: NUMBER OF ATOMS
63
ITEM: BOX BOUNDS pp pp pp
-15.480218887329102 70.03378295898438
-16.418611526489258 69.09539031982422
-53.887115478515625 31.62688446044922
ITEM: ATOMS id type xu yu zu
1 1   25.147   21.673  -30.208
2 1   28.173   24.603  -29.985
3 1   24.862   20.052  -33.095
4 1   26.577   23.120  -35.132
5 1   30.746   23.375  -33.141
6 1   26.914   22.857  -39.031
7 1   29.494   25.360  -39.181
8 1   32.165   23.170  -36.417
9 1   30.903   26.007  -42.449
10 1   34.409   26.906  -40.718
11 1   35.529   22.874  -38.586
12 1   37.139   27.592  -43.426
13 1   40.068   27.034  -41.056
14 1   38.628   23.314  -40.722
15 1   -3.448   -5.091   20.801
16 1   45.228   24.150  -41.148
17 1    1.134  -10.104   21.214
18 1    0.004  -11.305   17.862
19 1   -0.619   -7.347   16.561
20 1    1.635  -13.303   16.082
21 1    4.836  -11.385   16.465
22 1    6.198  -12.852   21.240
23 1    7.392  -11.744   14.051
24 1   10.505  -10.821   16.740
25 1    9.253  -13.397   19.164
26 1   14.056  -10.758   15.903
27 1   15.255  -12.257   19.414
28 1   13.008  -16.419   19.837
29 1   19.152  -13.483   19.876
30 1   18.253  -15.657   23.080
31 1   21.888  -14.527   25.044
32 1   -9.421   -6.077    7.159
33 1   -7.326  -10.040    8.020
34 1  -13.007   -6.461    7.459
35 1  -12.870  -10.228    7.579
36 1   -9.993  -10.350   10.562
37 1  -15.480  -11.825    8.163
38 1   33.553   17.223  -53.887
39 1   37.476   18.510  -51.070
40 1   31.776   14.903  -52.482
41 1   34.741   14.002  -49.392
42 1   35.295   17.794  -48.113
43 1   33.622   11.789  -47.187
44 1   36.919   12.604  -44.635
45 1   36.648   17.247  -44.133
46 1   37.141   10.892  -41.500
47 1   39.184   12.868  -39.485
48 1   37.943   16.783  -40.678
49 1   39.385   12.080  -35.898
50 1   41.506   15.342  -34.985
51 1   39.620   18.560  -37.416
52 1   41.905   15.986  -32.074
53 1   41.532   20.185  -32.571
54 1   38.050   19.923  -34.125
55 1   41.637   22.174  -29.317
56 1   39.725   25.215  -30.919
57 1   36.050   23.853  -32.727
58 1   39.161   28.650  -29.190
59 1   36.138   27.106  -27.205
60 1   34.547   24.087  -29.395
61 1   34.130   28.958  -25.711
62 1   32.619   26.088  -23.794
63 1   32.318   21.883  -26.638
ITEM: TIMESTEP
7
ITEM: NUMBER OF ATOMS
63
ITEM: BOX BOUNDS pp pp pp
7.616304874420166 93.13030242919922
-1.3957459926605225 84.11825561523438
-32.77151870727539 52.74248123168945
ITEM: ATOMS id type xu yu zu
1 1   33.644   24.937  -29.373
2 1   33.561   23.063  -26.070
3 1   30.964   23.628  -31.366
4 1   32.195   19.873  -30.943
5 1   32.326   18.602  -26.515
6 1   30.532   17.522  -32.772
7 1   31.580   14.846  -30.924
8 1   29.919   16.147  -27.644
9 1   30.845   11.115  -31.553
10 1   31.047   10.360  -27.639
11 1   27.875   12.776  -25.902
12 1   31.379    7.355  -26.571
13 1   29.730    7.920  -23.067
14 1   26.186    9.653  -24.761
15 1   29.956    5.370  -21.347
16 1   26.653    5.823  -19.060
17 1   26.176    8.525  -17.068
18 1   25.333    6.251  -13.670
19 1   21.422    5.197  -15.792
20 1   24.603    7.539  -10.738
21 1   24.937    4.365   -8.429
22 1   29.655    4.328   -7.260
23 1   22.855    4.180   -5.290
24 1   25.105    2.343   -3.492
25 1   28.252    5.309   -3.869
26 1   24.488    1.120   -0.508
27 1   28.011    1.394    0.875
28 1   27.913   -1.112    4.501
29 1   30.941    1.015   -1.581
30 1   33.297   -0.671    1.012
31 1   31.375    1.768    4.049
32 1   11.255   -0.140  -14.060
33 1   14.790    1.465  -16.073
34 1    8.122   -0.385  -15.851
35 1    9.906   -1.367  -19.281
36 1   12.136    1.798  -18.626
37 1    8.273   -1.396  -22.625
38 1    8.936    2.410  -23.423
39 1   13.350    2.449  -22.731
40 1    7.616    4.450  -26.054
41 1    8.969    7.775  -24.721
42 1   12.546    6.130  -23.348
43 1    9.127   10.436  -26.699
44 1   11.375   12.691  -23.873
45 1   15.117    9.463  -23.195
46 1   12.710   15.854  -25.211
47 1   14.857   16.299  -22.269
48 1   16.705   12.643  -22.739
49 1   17.029   18.620  -22.220
50 1   19.470   16.392  -20.083
51 1   22.324   14.531  -23.165
52 1   21.693   17.690  -17.229
53 1   24.766   15.465  -17.660
54 1   25.637   15.993  -21.526
55 1   26.976   15.406  -15.356
56 1   29.630   13.337  -17.613
57 1   29.982   15.628  -22.119
58 1   32.533   12.830  -16.666
59 1   34.490   12.749  -20.042
60 1   33.347   16.537  -21.456
61 1   37.612   12.317  -20.059
62 1   38.840   14.241  -23.661
63 1   36.134   18.513  -24.147
ITEM: TIMESTEP
8
ITEM: NUMBER OF ATOMS
63
ITEM: BOX BOUNDS pp pp pp
5.85475492477417 91.3687515258789
-3.4873805046081543 82.02661895751953
-35.27778244018555 50.2362174987793
ITEM: ATOMS id type xu yu zu
1 1   30.301   19.288  -35.278
2 1   32.245   19.106  -31.695
3 1   26.736   17.778  -35.200
4 1   28.224   14.451  -33.578
5 1   30.382   16.004  -29.586
6 1   26.017   11.480  -32.954
7 1   27.601   10.038  -29.833
8 1   28.342   13.495  -27.910
9 1   25.655    7.324  -28.235
10 1   27.077    8.066  -24.520
11 1   26.498   12.687  -23.992
12 1   26.080    6.606  -21.246
13 1   27.394    9.064  -19.195
14 1   24.709   11.845  -20.901
15 1   27.425    8.969  -15.545
16 1   26.341    5.586  -15.355
17 1   26.303    4.005  -11.836
18 1   25.453    0.554  -13.082
19 1   23.697   -0.016   -9.938
20 1   28.026   -1.374  -13.865
21 1   29.037   -1.240  -10.328
22 1   30.047    3.031   -8.955
23 1   28.118   -3.487   -7.707
24 1   29.216   -1.208   -4.876
25 1   32.036    0.487   -7.290
26 1   29.934   -2.688   -1.401
27 1   26.264   -1.043    0.233
28 1   26.784   -1.839    4.748
29 1   22.852   -2.026   -1.205
30 1   21.059    1.235    0.142
31 1   24.291    1.842    3.266
32 1    5.855   -0.500  -19.382
33 1    9.227   -2.558  -17.625
34 1    7.092    1.706  -22.203
35 1   11.173    0.714  -21.188
36 1   10.472    0.780  -16.921
37 1   13.797    2.535  -23.232
38 1   12.366    6.204  -22.130
39 1   14.887    6.899  -17.965
40 1   12.705    8.903  -24.377
41 1   12.599   11.900  -21.722
42 1   15.976   10.300  -19.080
43 1   12.770   15.484  -23.045
44 1   14.206   16.852  -19.806
45 1   17.739   14.296  -19.122
46 1   14.714   20.726  -19.109
47 1   17.183   20.790  -21.601
48 1   19.157   17.605  -20.563
49 1   19.150   23.449  -22.482
50 1   22.295   22.351  -19.895
51 1   23.473   17.596  -21.091
52 1   25.126   24.270  -19.833
53 1   27.463   21.112  -18.907
54 1   26.475   19.319  -22.345
55 1   31.093   21.696  -18.712
56 1   31.905   17.579  -19.406
57 1   30.432   16.261  -23.394
58 1   35.192   16.945  -19.045
59 1   35.457   14.318  -22.171
60 1   33.877   16.570  -25.312
61 1   38.115   12.206  -22.714
62 1   37.111   11.212  -26.198
63 1   35.784   15.821  -28.854
ITEM: TIMESTEP
9
ITEM: NUMBER OF ATOMS
63
ITEM: BOX BOUNDS pp pp pp
6.901019096374512 92.4150161743164
-39.82455062866211 45.689449310302734
-31.04949188232422 54.464508056640625
ITEM: ATOMS id type xu yu zu
1 1   39.785   16.431  -27.154
2 1   36.748   19.255  -27.164
3 1   41.488   16.416  -24.289
4 1   38.421   14.808  -22.492
5 1   34.466   17.255  -24.203
6 1   38.005   14.418  -18.790
7 1   35.443   16.773  -18.339
8 1   32.340   15.562  -21.304
9 1   33.996   17.606  -15.009
10 1   31.082   19.254  -16.280
11 1   29.013   16.340  -18.758
12 1   28.998   20.620  -13.498
13 1   25.346   19.949  -15.476
14 1   26.264   15.466  -16.279
15 1   22.142   20.765  -14.298
16 1   20.311   18.692  -16.959
17 1   17.006   17.896  -17.425
18 1   17.373   14.104  -15.774
19 1   17.810   15.461  -11.663
20 1   15.193   11.813  -16.439
21 1   15.240   10.428  -13.081
22 1   13.267    6.162  -13.569
23 1   14.769   12.142  -10.163
24 1   17.353    9.090   -8.430
25 1   15.543    6.043  -10.452
26 1   17.948    8.756   -5.180
27 1   20.352    5.794   -5.990
28 1   18.244    3.279   -8.599
29 1   23.231    6.003   -7.465
30 1   22.401    3.050  -10.034
31 1   20.751    0.956   -7.305
32 1    6.901   -8.387  -28.827
33 1   12.684   39.754   37.713
34 1    8.100   -5.205  -27.214
35 1   11.342   -7.204  -26.420
36 1   12.131   -7.122  -30.302
37 1   14.142   -5.449  -24.203
38 1   17.134   -7.694  -26.085
39 1   16.679   -7.279  -31.049
40 1   20.636   -7.563  -25.395
41 1   21.472   -3.650  -27.291
42 1   18.414   -1.724  -24.962
43 1   24.661   -2.248  -27.441
44 1   23.462    1.366  -28.583
45 1   20.405    2.086  -25.244
46 1   25.412    3.761  -29.086
47 1   23.965    6.365  -27.700
48 1   23.234    3.897  -24.131
49 1   25.502    9.191  -27.405
50 1   23.413   10.202  -24.347
51 1   25.854   11.838  -20.785
52 1   21.155   12.281  -24.626
53 1   23.134   15.111  -26.015
54 1   26.147   14.494  -23.706
55 1   22.022   18.590  -25.135
56 1   25.208   20.554  -26.870
57 1   29.238   17.744  -25.224
58 1   61.979  -39.825   17.754
59 1   27.889   23.246  -23.127
60 1   30.572   21.049  -24.932
61 1   29.080   26.254  -21.258
62 1   32.251   23.959  -19.600
63 1   34.463   22.385  -23.193
ITEM: TIMESTEP
10
ITEM: NUMBER OF ATOMS
63
ITEM: BOX BOUNDS pp pp pp
3.2178025245666504 88.73180389404297
-5.042937278747559 80.47106170654297
-44.14777755737305 41.3662223815918
ITEM: ATOMS id type xu yu zu
1 1   27.071   27.012  -21.923
2 1   27.905   24.084  -25.052
3 1   23.569   26.348  -20.544
4 1   22.036   25.151  -24.013
5 1   24.557   21.571  -25.837
6 1   18.966   23.976  -23.777
7 1   19.377   22.168  -27.578
8 1   22.045   19.034  -26.304
9 1   16.486   21.033  -29.402
10 1   18.464   17.635  -30.808
11 1   20.760   15.303  -27.634
12 1   16.475   15.328  -32.931
13 1   19.048   12.317  -33.513
14 1   19.851   12.318  -29.412
15 1   22.135   13.112  -35.008
16 1   20.703   12.009  -38.593
17 1   16.808   10.892  -38.828
18 1   17.192    8.234  -41.749
19 1   18.929   10.596  -44.148
20 1   13.900    6.349  -42.972
21 1   45.194   -4.593   32.303
22 1   48.424   -1.179   32.505
23 1   44.065   -5.043   28.566
24 1   44.760   -1.150   27.715
25 1   49.184   -1.096   28.987
26 1   44.529    0.661   24.291
27 1   48.232    0.905   24.491
28 1   49.362    3.402   28.980
29 1   50.264    1.729   21.814
30 1   49.537    5.741   22.092
31 1   51.027    5.538   25.914
32 1    3.218    6.562  -34.261
33 1    5.159    8.084  -30.348
34 1    3.381    3.174  -34.210
35 1    4.947    3.012  -30.190
36 1    8.125    5.952  -30.837
37 1    5.776   -0.316  -28.314
38 1    9.180    0.793  -25.720
39 1   10.248    5.343  -27.181
40 1    8.372    0.827  -22.061
41 1   12.265    1.103  -21.274
42 1   12.604    4.656  -24.309
43 1   13.993    1.434  -17.897
44 1   17.721    2.966  -19.763
45 1   16.852    4.944  -23.423
46 1   20.003    4.223  -17.932
47 1   22.401    4.226  -20.017
48 1   20.330    5.966  -23.255
49 1   25.575    5.359  -19.396
50 1   26.270    6.230  -23.416
51 1   22.584    9.034  -24.837
52 1   29.471    7.684  -24.789
53 1   28.240    8.836  -28.205
54 1   25.121   11.200  -26.255
55 1   30.292   10.149  -29.964
56 1   27.648   12.444  -31.590
57 1   25.578   15.228  -28.235
58 1   28.441   14.730  -34.532
59 1   25.325   16.987  -33.782
60 1   26.596   18.416  -29.899
61 1   24.353   19.471  -35.584
62 1   22.279   20.818  -32.784
63 1   25.813   22.442  -29.915
ITEM: TIMESTEP
11
ITEM: NUMBER OF ATOMS
63
ITEM: BOX BOUNDS pp pp pp
5.900879383087158 91.41487884521484
-1.9968767166137695 83.51712036132812
-33.41402053833008 52.099979400634766
ITEM: ATOMS id type xu yu zu
1 1   35.850   20.546  -31.242
2 1   34.945   19.880  -27.285
3 1   34.165   18.433  -33.414
4 1   34.126   15.516  -30.440
5 1   31.977   16.891  -26.964
6 1   33.040   12.247  -31.182
7 1   32.484   11.352  -27.536
8 1   29.644   13.884  -27.052
9 1   31.281    7.647  -26.430
10 1   30.139    8.556  -23.155
11 1   27.251   12.167  -24.334
12 1   28.174    6.526  -21.645
13 1   26.301    9.237  -19.786
14 1   24.254   10.212  -23.492
15 1   24.291    9.085  -16.684
16 1   26.570   10.049  -14.333
17 1   29.972    9.153  -14.455
18 1   30.689    8.133  -10.226
19 1   27.724    5.574  -10.672
20 1   33.373    6.814   -9.155
21 1   32.155    5.368   -5.772
22 1   27.389    4.217   -6.719
23 1   33.811    3.455   -4.168
24 1   31.581    3.312   -1.045
25 1   28.386    3.261   -3.176
26 1   31.953    1.280    1.529
27 1   27.929    1.853    2.814
28 1   24.992    1.556   -0.919
29 1   26.969   -0.473    5.609
30 1   23.068   -0.186    4.771
31 1   24.020   -1.208    1.185
32 1    5.901    2.764  -15.160
33 1    8.733    6.492  -16.183
34 1    7.850   -0.346  -15.809
35 1    7.609    0.082  -19.303
36 1    7.878    4.146  -19.299
37 1    9.679   -1.997  -22.052
38 1    9.742    0.744  -24.815
39 1   11.362    3.727  -21.567
40 1   12.048    0.353  -27.724
41 1   12.905    4.493  -28.349
42 1   13.418    5.682  -24.228
43 1   14.774    5.466  -30.796
44 1   15.002    9.287  -30.136
45 1   15.421    9.528  -25.360
46 1   17.037   11.931  -31.974
47 1   16.370   14.775  -29.320
48 1   17.956   12.310  -26.205
49 1   16.616   17.868  -29.642
50 1   17.978   18.345  -25.472
51 1   21.167   14.865  -25.581
52 1   19.435   21.550  -23.962
53 1   21.874   19.739  -21.188
54 1   23.935   17.222  -24.235
55 1   23.544   21.617  -19.277
56 1   26.216   18.278  -18.300
57 1   27.982   17.074  -22.612
58 1   29.058   18.809  -16.029
59 1   31.109   16.100  -17.698
60 1   31.524   17.859  -21.718
61 1   34.215   14.760  -16.319
62 1   35.853   14.552  -19.795
63 1   36.315   18.947  -21.066
ITEM: TIMESTEP
12
ITEM: NUMBER OF ATOMS
63
ITEM: BOX BOUNDS pp pp pp
-7.217194557189941 78.29680633544922
-21.748992919921875 63.76500701904297
-35.71088409423828 49.80311584472656
ITEM: ATOMS id type xu yu zu
1 1   43.466   41.281  -34.126
2 1   45.763   44.149  -31.394
3 1   41.249   42.988  -35.711
4 1   40.407   45.712  -32.979
5 1   44.238   48.101  -31.770
6 1   38.141   47.969  -33.949
7 1   39.708   51.435  -32.125
8 1   43.712   51.341  -33.301
9 1   38.204   55.011  -32.578
10 1   41.881   57.437  -31.695
11 1   45.727   55.263  -34.329
12 1    5.573  -11.604   -5.008
13 1    9.756  -11.113   -4.873
14 1   10.660  -13.903   -7.951
15 1   11.200   -8.097   -5.043
16 1   14.634   -9.782   -6.601
17 1   17.710   -7.637   -6.680
18 1   20.020  -10.865   -5.429
19 1   17.655  -11.878   -2.482
20 1   23.230  -10.247   -5.026
21 1   23.852   -8.578   -8.396
22 1   25.043  -11.689  -11.341
23 1   21.441   -6.874   -9.577
24 1   22.007   -7.577  -13.266
25 1   25.911   -8.313  -13.031
26 1   20.996   -5.484  -15.482
27 1   23.990   -3.503  -16.157
28 1   24.043   -0.496  -12.843
29 1   24.235   -1.968  -19.669
30 1   21.872    0.693  -19.207
31 1   23.731    2.121  -15.620
32 1   -7.217  -12.143  -18.734
33 1   -4.529  -14.180  -14.978
34 1   -6.161   -9.226  -20.447
35 1   -2.097   -9.933  -19.965
36 1   -2.623  -11.229  -15.883
37 1    0.184   -6.871  -20.459
38 1    3.654   -8.322  -18.360
39 1    2.071  -11.644  -15.665
40 1    6.490   -6.056  -16.982
41 1    9.260   -9.325  -16.774
42 1    5.842  -11.472  -15.063
43 1   10.358  -10.884  -19.697
44 1   13.477  -12.671  -17.701
45 1   12.332  -13.922  -13.434
46 1   15.484  -15.443  -19.166
47 1   15.858  -17.880  -15.586
48 1   16.338  -14.782  -13.548
49 1   17.919  -20.383  -15.319
50 1   18.925  -19.394  -11.450
51 1   14.791  -17.228  -10.308
52 1   19.731  -21.749   -9.434
53 1   18.260  -20.043   -6.059
54 1   51.057   52.425  -34.694
55 1   55.067   50.890  -29.709
56 1   52.471   52.695  -28.293
57 1   48.816   51.804  -31.138
58 1   51.653   51.651  -24.682
59 1   48.420   52.622  -24.775
60 1   47.788   50.138  -27.872
61 1   46.749   52.044  -21.946
62 1   43.547   50.796  -24.025
63 1   45.038   47.185  -26.763
ITEM: TIMESTEP
13
ITEM: NUMBER OF ATOMS
63
ITEM: BOX BOUNDS pp pp pp
12.730074882507324 98.24407196044922
-9.481618881225586 76.03237915039062
-31.4033203125 54.110679626464844
ITEM: ATOMS id type xu yu zu
1 1   17.395   -6.952  -31.070
2 1   32.851   74.610  -20.808
3 1   13.742   -6.032  -31.403
4 1   13.129   -5.460  -27.273
5 1   17.205   -7.009  -24.831
6 1   12.730   -2.349  -26.098
7 1   13.850   -2.836  -22.886
8 1   18.146   -3.586  -23.591
9 1   13.150   -0.212  -20.005
10 1   15.161    2.297  -21.744
11 1   19.280    0.107  -21.957
12 1   15.273    5.852  -20.044
13 1   19.532    5.769  -18.886
14 1   19.398    1.690  -17.906
15 1   20.256    7.664  -16.193
16 1   20.061    4.771  -13.538
17 1   17.618    4.711  -11.494
18 1   19.617    1.981   -8.867
19 1   15.941    1.416   -6.187
20 1   20.514   -0.885   -9.905
21 1   23.921   -0.004  -10.044
22 1   25.895   -2.893   -6.906
23 1   25.403   -0.415  -12.618
24 1   28.925   -0.924  -11.427
25 1   27.723   -4.439   -9.545
26 1   31.319   -1.172  -13.691
27 1   34.183    0.272  -11.607
28 1   31.731    3.537   -8.477
29 1   37.304    1.601  -12.563
30 1   38.621    2.534   -9.010
31 1   34.670    2.430   -6.730