ITEM: TIMESTEP
0
ITEM: NUMBER OF ATOMS
63
ITEM: BOX BOUNDS pp pp pp
-43.39320373535156 42.12079620361328
-3.1392698287963867 82.3747329711914
-30.860198974609375 54.65380096435547
ITEM: ATOMS id type xu yu zu
1 1   30.036    8.802   -8.622
2 1   32.213    6.463  -11.874
3 1   32.462   10.634   -6.292
4 1   34.611    7.492   -5.932
5 1   36.075    6.067  -10.153
6 1   37.896    8.147   -3.657
7 1   40.254    5.813   -5.292
8 1   39.492    6.879   -8.989
9 1  -42.056    6.035   -4.353
10 1  -41.086    2.172   -5.624
11 1  -37.309    1.468   -6.206
12 1  -36.622    3.107  -10.035
13 1  -38.819    6.998   -9.295
14 1  -33.517    2.479  -11.519
15 1  -33.930    5.533  -13.921
16 1  -35.410    8.954  -10.989
17 1  -31.660    6.560  -16.004
18 1  -33.554    9.996  -16.753
19 1  -33.009   11.075  -12.628
20 1  -31.612   12.012  -19.032
21 1  -28.515    9.125  -19.045
22 1  -29.513    6.309  -22.550
23 1  -25.125   10.112  -18.881
24 1  -23.525    7.099  -21.402
25 1  -26.334    4.599  -22.024
26 1  -19.797    6.080  -22.082
27 1  -20.207    5.029  -25.597
28 1  -24.978    4.056  -26.379
29 1  -18.008    4.021  -28.031
30 1  -20.013    4.705  -30.860
31 1  -23.601    6.420  -28.970
32 1  -26.760   10.337    5.551
33 1  -30.058   11.000    8.577
34 1  -26.510   13.083    3.103
35 1  -26.909   15.633    5.468
36 1  -30.670   14.060    6.775
37 1  -26.831   18.542    4.544
38 1  -29.313   17.826    1.569
39 1  -33.111   16.359    4.156
40 1  -30.239   20.761   -0.835
41 1  -32.749   18.969   -2.633
42 1  -34.867   17.908    1.101
43 1  -34.777   20.848   -5.684
44 1  -37.774   18.255   -5.871
45 1  -35.636   14.144   -7.964
46 1  -40.468   18.624   -7.208
47 1  -39.630   17.250  -11.095
48 1  -39.017   13.542   -9.378
49 1  -42.406   17.739  -14.110
50 1  -40.928   14.553  -15.758
51 1  -40.561   11.451  -12.604
52 1  -41.986   13.903  -18.786
53 1  -41.373    9.634  -18.341
54 1   42.676    9.472  -14.760
55 1   42.602    7.417  -20.861
56 1  -43.393    4.120  -18.263
57 1   40.254    5.712  -14.300
58 1   40.105    1.266  -19.071
59 1   39.967    0.443  -15.753
60 1   37.645    3.344  -14.544
61 1   39.511   -3.139  -14.614
62 1   38.471   -2.191  -11.270
63 1   34.773    1.514  -11.977
ITEM: TIMESTEP
1
ITEM: NUMBER OF ATOMS
63
ITEM: BOX BOUNDS pp pp pp
-27.227209091186523 58.28678894042969
-4.342513561248779 81.1714859008789
-28.11693572998047 57.397064208984375
ITEM: ATOMS id type xu yu zu
1 1   -6.251   12.492  -13.596
2 1   -3.792   10.935  -10.969
3 1   -6.203   10.954  -17.189
4 1   -3.083    9.372  -16.886
5 1   -2.852    7.031  -12.452
6 1   -1.535    7.057  -19.710
7 1   -2.543    3.349  -18.373
8 1   -4.328    4.555  -14.695
9 1   -4.552    0.678  -20.485
10 1   -5.975   -1.286  -18.029
11 1   -8.424   -3.980  -18.588
12 1  -11.086   -2.763  -16.530
13 1  -10.528    0.957  -18.696
14 1  -14.155   -4.343  -16.473
15 1  -15.712   -1.082  -14.727
16 1  -14.434    2.198  -17.432
17 1  -18.837   -0.881  -13.732
18 1  -18.697    3.089  -14.298
19 1  -17.880    2.292  -18.372
20 1  -21.951    5.461  -13.821
21 1  -21.009    8.547  -16.469
22 1  -19.899    5.734  -20.317
23 1  -23.292   11.275  -17.590
24 1  -21.823   11.819  -21.389
25 1  -22.263    7.494  -22.442
26 1  -22.963   14.138  -22.963
27 1  -19.583   15.879  -22.797
28 1  -17.569   13.871  -26.560
29 1  -19.162   19.670  -22.809
30 1  -15.956   19.731  -24.679
31 1  -17.931   17.164  -28.117
32 1  -20.830   27.488   -6.258
33 1  -18.946   22.887   -7.055
34 1  -22.945   28.166   -4.075
35 1  -24.037   24.497   -3.359
36 1  -19.960   23.244   -2.898
37 1  -26.721   23.528   -0.842
38 1  -25.002   19.755    0.126
39 1  -21.729   19.485   -2.520
40 1  -27.227   17.013    0.191
41 1  -25.017   14.917   -1.986
42 1  -21.468   16.471   -0.565
43 1  -25.425   11.072   -2.253
44 1  -21.784   10.049   -3.873
45 1  -18.682   13.780   -2.266
46 1  -20.244    6.686   -3.429
47 1  -16.746    7.789   -3.283
48 1  -17.348   10.584   -0.507
49 1  -15.025    8.874   -6.316
50 1  -12.509    5.653   -6.135
51 1   -8.315    7.468   -6.285
52 1  -12.826    3.615   -3.698
53 1   -9.076    2.280   -3.814
54 1   -8.398    3.919   -7.720
55 1   -6.379    3.166   -1.098
56 1   -2.972    2.015   -3.497
57 1   -4.071    3.294   -8.330
58 1    0.754    3.230   -2.551
59 1    2.119    2.827   -6.032
60 1   -0.918    5.241   -7.710
61 1    5.497    3.748   -7.214
62 1    4.451    4.526  -11.051
63 1    0.923    7.946  -10.337
ITEM: TIMESTEP
2
ITEM: NUMBER OF ATOMS
63
ITEM: BOX BOUNDS pp pp pp
-40.50910186767578 45.00489807128906
-3.0634312629699707 82.45056915283203
-40.476104736328125 45.03789520263672
ITEM: ATOMS id type xu yu zu
1 1   45.899   11.023   13.452
2 1   44.285    8.683   10.183
3 1   45.986   14.711   12.577
4 1   44.012   15.724   16.014
5 1  -11.830   -3.063  -39.407
6 1   42.912   19.149   16.337
7 1  -15.034    0.907  -39.363
8 1  -11.187    0.284  -40.476
9 1  -15.345    4.274  -37.226
10 1  -18.427    2.478  -34.970
11 1  -20.383    4.301  -32.862
12 1  -21.288    1.779  -30.010
13 1  -20.874    4.861  -27.577
14 1  -24.764    0.590  -29.833
15 1  -24.564   -0.431  -25.863
16 1  -22.643    3.143  -23.937
17 1  -27.639   -1.399  -24.504
18 1  -25.848   -1.473  -21.261
19 1  -25.486    3.023  -21.721
20 1  -27.384   -2.342  -18.597
21 1  -26.568    0.935  -17.021
22 1  -28.677    4.475  -19.429
23 1  -26.495    0.993  -13.304
24 1  -26.608    4.448  -12.749
25 1  -28.924    4.975  -15.770
26 1  -27.740    5.631   -9.976
27 1  -27.992    9.130  -11.153
28 1  -30.754    8.633  -14.845
29 1  -29.541   11.490   -8.755
30 1  -31.514   13.777  -11.238
31 1  -33.156   10.704  -12.946
32 1   14.388   26.165   45.319
33 1  -40.509    8.996  -12.613
34 1   13.879   23.956   42.192
35 1   16.644   25.846   40.118
36 1  -39.801    7.650  -15.939
37 1   17.647   25.095   37.023
38 1   20.501   28.226   36.793
39 1  -36.112    9.630  -17.934
40 1   22.961   28.096   34.191
41 1  -33.163   12.511  -23.102
42 1  -33.101    9.308  -20.014
43 1  -29.919   13.621  -24.835
44 1  -27.826   13.605  -21.305
45 1  -28.638    9.294  -19.628
46 1  -24.328   14.411  -21.517
47 1  -23.408   13.263  -18.055
48 1  -25.048    9.672  -18.515
49 1  -20.200   13.228  -17.062
50 1  -19.725    9.958  -15.668
51 1  -21.665    6.831  -18.920
52 1  -16.496    8.868  -14.782
53 1  -17.501    5.205  -15.220
54 1  -18.414    5.254  -19.610
55 1  -14.956    2.869  -13.682
56 1  -12.045    5.498  -13.243
57 1   -7.870    3.823  -15.221
58 1  -11.275    6.472  -10.191
59 1  -10.570   10.485  -11.173
60 1  -10.726   10.830  -15.318
61 1   -8.799   12.361   -8.954
62 1  -11.578   15.645   -9.228
63 1   -9.898   18.537   -5.510
ITEM: TIMESTEP
3
ITEM: NUMBER OF ATOMS
63
ITEM: BOX BOUNDS pp pp pp
-35.89269256591797 49.621307373046875
-26.2918643951416 59.222137451171875
-39.35734558105469 46.156654357910156
ITEM: ATOMS id type xu yu zu
1 1   -5.510   16.099  -19.363
2 1   -4.196   13.325  -16.751
3 1   -8.295   17.905  -17.929
4 1  -10.086   14.825  -15.814
5 1   -6.795   11.872  -13.655
6 1  -12.984   13.526  -17.089
7 1  -12.363   10.037  -15.507
8 1  -10.191   11.187  -12.075
9 1  -15.261    7.853  -15.066
10 1  -17.110    8.686  -18.444
11 1  -20.227    7.892  -19.448
12 1  -19.480    9.406  -22.685
13 1  -17.797   12.945  -21.002
14 1  -21.673    9.779  -24.826
15 1  -24.490    7.901  -22.292
16 1  -24.374   10.193  -18.362
17 1  -28.128    7.091  -23.182
18 1  -29.336    6.159  -19.928
19 1  -28.067   10.153  -18.425
20 1  -32.609    5.248  -19.656
21 1  -32.775    5.967  -16.304
22 1  -31.450   10.332  -15.897
23 1  -35.857    5.430  -15.060
24 1  -35.893    7.856  -11.988
25 1  -34.732   10.659  -14.424
26 1   34.016  -26.292  -39.357
27 1   35.718  -22.606  -38.153
28 1  -35.275   14.424  -12.328
29 1   37.916  -22.497  -35.302
30 1   37.409  -18.780  -35.108
31 1  -32.989   16.037   -9.915
32 1  -32.257    8.773    4.111
33 1  -30.214   11.481    7.237
34 1  -29.577    7.101    1.785
35 1  -27.786   10.750    0.722
36 1  -27.323   12.232    4.882
37 1  -25.082   11.210   -1.434
38 1  -23.408   13.793    0.430
39 1  -20.295   11.425    3.142
40 1  -22.026   16.130   -1.250
41 1  -18.914   16.576    0.808
42 1  -16.897   14.037   -1.819
43 1  -17.272   19.927    1.110
44 1  -13.716   19.021    2.027
45 1  -13.385   14.942    0.394
46 1  -10.735   21.214    0.975
47 1   -7.818   18.123    0.892
48 1  -10.130   15.795   -1.247
49 1   -4.823   18.891    0.020
50 1   -4.300   15.524   -1.269
51 1   -6.999   15.128   -4.620
52 1   -1.452   14.922   -2.426
53 1   -2.332   11.078   -4.037
54 1   -4.911   12.889   -6.863
55 1   -0.209    8.890   -5.173
56 1   -2.939    6.567   -6.570
57 1   -5.580    9.344   -9.584
58 1   -2.071    3.324   -8.307
59 1   -5.380    4.193  -10.576
60 1   -4.195    7.409  -12.168
61 1   -6.324    1.575  -12.560
62 1   -8.071    3.880  -15.196
63 1   -5.817    7.869  -15.926
ITEM: TIMESTEP
4
ITEM: NUMBER OF ATOMS
63
ITEM: BOX BOUNDS pp pp pp
-51.784690856933594 33.72930908203125
-18.71491050720215 66.79908752441406
-24.470836639404297 61.04316329956055
ITEM: ATOMS id type xu yu zu
1 1   39.577   18.058  -11.097
2 1  -36.177   48.064   -5.312
3 1   38.271   15.862   -8.610
4 1   35.260   14.066  -11.218
5 1   37.617   12.852  -15.104
6 1   33.609   11.080  -10.205
7 1   32.144   10.242  -13.872
8 1   34.180   13.237  -16.080
9 1   28.521    9.644  -14.251
10 1   28.952    6.581  -17.124
11 1   25.885    5.122  -18.620
12 1   27.436    1.821  -19.977
13 1   28.941    3.603  -23.342
14 1   25.694   -1.467  -20.759
15 1   27.580   -3.726  -18.006
16 1   27.490   -8.327  -20.195
17 1   30.675   -3.093  -17.326
18 1  -47.751   24.297   -8.205
19 1  -48.410   23.149  -11.884
20 1  -44.937   23.575   -6.838
21 1  -44.809   19.892   -7.623
22 1  -45.179   20.288  -12.263
23 1  -41.871   17.937   -6.737
24 1  -42.674   15.375  -10.174
25 1  -41.961   18.681  -12.795
26 1  -40.873   12.300  -10.445
27 1  -40.852   12.564  -14.348
28 1  -39.456   16.539  -15.444
29 1  -39.168   10.114  -15.890
30 1  -39.162   12.486  -19.315
31 1  -36.634   15.309  -17.135
32 1  -50.599  -14.656   47.713
33 1  -50.105  -16.023   43.077
34 1  -48.292  -15.777   50.025
35 1  -35.784   30.675  -19.273
36 1  -47.469  -18.715   44.305
37 1  -34.205   27.802  -17.316
38 1  -35.567   25.114  -19.901
39 1  -36.592   21.128  -17.420
40 1  -38.568   26.158  -21.622
41 1  -39.939   22.670  -22.348
42 1  -40.196   21.545  -18.516
43 1  -43.152   22.662  -24.471
44 1  -44.289   18.996  -23.037
45 1  -44.058   19.955  -18.226
46 1  -47.636   17.463  -23.468
47 1  -47.252   15.473  -19.695
48 1  -47.593   18.936  -17.762
49 1  -49.874   12.790  -18.912
50 1  -49.415   13.019  -15.398
51 1  -50.240   18.015  -14.471
52 1  -51.295   11.031  -13.397
53 1  -51.785   13.338  -10.743
54 1   26.325  -14.225  -20.601
55 1   25.874  -18.557  -15.746
56 1   25.215  -15.138  -13.680
57 1   25.348  -11.298  -17.189
58 1   26.898  -14.013  -10.542
59 1   24.301  -11.225  -10.402
60 1   25.755   -9.040  -13.801
61 1   24.085   -8.930   -7.315
62 1   24.975   -5.724   -9.778
63 1   28.085   -2.954   -7.734
ITEM: TIMESTEP
5
ITEM: NUMBER OF ATOMS
63
ITEM: BOX BOUNDS pp pp pp
-33.528472900390625 51.98552703857422
-4.0448527336120605 81.46914672851562
-26.194116592407227 59.31988525390625
ITEM: ATOMS id type xu yu zu
1 1   -2.500   10.489  -20.147
2 1   -0.381   10.073  -16.648
3 1   -5.976   10.586  -19.444
4 1   -5.963    7.595  -16.786
5 1   -2.930    8.922  -13.526
6 1   -8.762    6.645  -15.089
7 1   -6.828    5.071  -12.204
8 1   -5.439    8.222  -10.687
9 1   -9.068    3.324   -9.439
10 1  -10.319    0.021  -11.667
11 1   -9.891    0.424  -15.070
12 1   -9.614   -3.175  -15.933
13 1  -12.893   -3.698  -14.587
14 1   -9.084   -4.045  -19.340
15 1  -10.999   -1.395  -20.565
16 1  -14.745   -1.468  -18.002
17 1  -11.724   -0.932  -23.939
18 1  -15.369    0.034  -23.788
19 1  -15.058    1.478  -19.915
20 1  -17.005    2.586  -26.194
21 1  -20.351    2.214  -24.604
22 1  -19.247    2.761  -19.927
23 1  -22.899    4.301  -25.529
24 1  -22.264    6.650  -22.451
25 1  -23.087    3.547  -19.945
26 1  -24.374    9.448  -21.475
27 1  -27.844    7.357  -22.277
28 1  -27.588    3.779  -19.935
29 1  -31.198    9.127  -21.729
30 1  -33.256    6.515  -21.615
31 1  -31.628    4.980  -18.129
32 1  -33.528   13.850    4.596
33 1  -33.211   13.703   -0.134
34 1  -30.643   15.457    6.327
35 1  -27.806   14.684    3.173
36 1  -30.418   16.106    0.381
37 1  -24.626   16.110    3.787
38 1  -23.518   15.676    0.260
39 1  -27.497   17.755   -2.261
40 1  -20.267   17.119   -0.922
41 1  -21.202   16.621   -4.474
42 1  -24.312   18.967   -4.196
43 1  -18.898   17.063   -7.704
44 1  -16.306   18.502   -5.487
45 1  -13.607   14.281   -4.442
46 1  -13.922   20.720   -7.062
47 1  -10.738   19.833   -4.812
48 1  -10.693   16.128   -6.010
49 1   -7.671   21.521   -5.392
50 1   -5.444   18.894   -3.958
51 1   -6.772   14.775   -6.431
52 1   -2.070   19.251   -3.922
53 1   -1.144   15.518   -3.587
54 1   -3.074   14.303   -6.656
55 1    2.511   14.449   -3.788
56 1    1.737   10.674   -4.619
57 1   -1.157   10.494   -7.930
58 1    4.703    8.048   -4.740
59 1    3.065    5.548   -6.444
60 1    1.150    8.323   -9.567
61 1    4.657    2.665   -7.752
62 1    2.057    2.025  -10.513
63 1    1.806    6.116  -12.968
ITEM: TIMESTEP
6
ITEM: NUMBER OF ATOMS
63
ITEM: BOX BOUNDS pp pp pp
-40.3292121887207 45.18478775024414
-38.50734329223633 47.006656646728516
-51.357696533203125 34.15630340576172
ITEM: ATOMS id type xu yu zu
1 1   33.120   82.612   -0.546
2 1   32.332   86.648   -2.457
3 1   35.198   82.449    2.065
4 1   38.990   19.014  -51.358
5 1   36.294   22.842  -49.999
6 1  -22.764  -16.370   -6.705
7 1  -23.087  -12.574   -6.500
8 1   38.191   23.118  -46.719
9 1  -20.459  -10.566   -4.810
10 1  -22.249   -6.728   -4.962
11 1  -26.000   -6.490   -4.706
12 1  -26.497   -4.142   -1.847
13 1  -26.170   -1.434   -4.476
14 1   34.727   31.756  -42.785
15 1   34.563   35.322  -41.727
16 1  -28.459    1.847   -2.972
17 1   31.604   36.985  -40.546
18 1   32.399   40.403  -41.817
19 1  -31.814    3.346   -2.781
20 1   30.194   43.332  -41.169
21 1  -33.663    9.700   -1.320
22 1  -32.655    6.858   -4.864
23 1  -35.732   12.419   -2.234
24 1  -34.193   13.240   -5.681
25 1  -34.604    9.009   -7.217
26 1  -35.853   15.690   -7.754
27 1  -34.409   14.385  -11.040
28 1  -29.601   14.611  -10.789
29 1  -35.640   15.601  -14.084
30 1  -34.246   12.492  -15.909
31 1  -30.830   12.095  -13.313
32 1  -13.073    4.359   -3.408
33 1  -14.087    2.238   -7.177
34 1   -9.876    4.830   -3.436
35 1   -9.883    7.545   -5.892
36 1  -12.321    5.058   -8.382
37 1  -10.861   10.595   -4.986
38 1  -14.754    9.825   -5.035
39 1  -15.423    8.129   -8.843
40 1  -16.757   12.580   -5.318
41 1  -20.036   10.130   -4.813
42 1  -18.794    7.194   -7.825
43 1  -23.701   11.332   -5.330
44 1  -24.220    8.335   -8.440
45 1  -27.887    5.558   -6.757
46 1  -24.603    9.190  -11.782
47 1  -26.402    5.706  -13.595
48 1  -28.789    4.580  -10.038
49 1  -28.217    6.249  -16.898
50 1  -28.943    2.673  -16.927
51 1  -31.308    2.029  -12.547
52 1  -31.200    1.138  -20.039
53 1  -32.595   -2.011  -18.043
54 1  -34.479    0.678  -15.793
55 1  -34.420   -4.397  -20.158
56 1  -37.014   -1.299  -21.273
57 1  -36.705    2.579  -18.871
58 1  -40.316   -2.317  -22.104
59 1   14.087  -38.507   28.694
60 1  -40.329    2.710  -19.364
61 1   10.928  -37.716   28.009
62 1   12.225  -34.158   26.167
63 1   15.945  -35.684   23.396
ITEM: TIMESTEP
7
ITEM: NUMBER OF ATOMS
63
ITEM: BOX BOUNDS pp pp pp
-32.36831283569336 53.145687103271484
1.0020016431808472 86.51599884033203
-26.830989837646484 58.68301010131836
ITEM: ATOMS id type xu yu zu
1 1    6.107    6.860  -18.156
2 1    4.633    9.650  -15.223
3 1    6.402    3.204  -16.962
4 1    2.248    3.505  -15.959
5 1    1.016    7.650  -14.322
6 1    0.652    1.002  -14.137
7 1   -2.229    1.859  -15.839
8 1   -1.443    5.663  -17.889
9 1   -5.104    1.725  -14.434
10 1   -4.824    4.847  -12.381
11 1   -6.789    7.889  -12.892
12 1   -9.372    6.487  -15.495
13 1  -11.673    4.057  -12.296
14 1  -11.060    8.866  -17.605
15 1  -12.302    6.337  -20.630
16 1  -15.572    3.117  -18.798
17 1  -13.511    8.063  -23.641
18 1  -16.995    6.168  -24.044
19 1  -17.834    6.248  -19.716
20 1  -19.809    7.088  -26.383
21 1  -22.172    4.449  -25.285
22 1  -21.780    5.016  -20.446
23 1  -25.691    4.061  -26.831
24 1  -26.758    3.152  -23.567
25 1  -24.916    6.375  -21.536
26 1  -30.303    2.618  -22.837
27 1  -30.006    2.940  -19.102
28 1  -29.277    7.305  -18.642
29 1  -32.368    1.495  -16.611
30 1  -31.388    4.255  -13.608
31 1  -31.900    7.814  -16.192
32 1  -30.855   11.307    6.775
33 1  -26.260   12.939    7.028
34 1  -32.106   11.691    3.606
35 1  -29.004   13.745    2.162
36 1  -27.315   10.545    0.247
37 1  -26.974   15.432    4.513
38 1  -24.541   17.411    1.685
39 1  -21.389   14.466    1.928
40 1  -25.831   17.945   -1.793
41 1  -22.340   18.027   -4.023
42 1  -19.532   15.723   -1.069
43 1  -22.730   16.451   -7.140
44 1  -18.986   16.330   -7.879
45 1  -16.592   14.564   -3.930
46 1  -17.798   14.673  -10.993
47 1  -14.248   14.429  -10.377
48 1  -15.495   13.013   -6.955
49 1  -11.539   12.069  -12.279
50 1   -8.834   13.425  -10.025
51 1  -10.878   13.051   -6.189
52 1   -5.779   12.127  -10.010
53 1   -6.102   12.123   -6.492
54 1   -9.092    9.741   -6.543
55 1   -3.458   11.226   -3.826
56 1   -1.173   10.638   -6.085
57 1   -0.019   14.649   -7.005
58 1    2.109    8.981   -4.581
59 1    4.343   11.080   -6.742
60 1    3.481   14.318   -5.559
61 1    3.915   10.750  -10.028
62 1    6.000    7.377   -9.726
63 1    7.920    6.610   -5.067
ITEM: TIMESTEP
8
ITEM: NUMBER OF ATOMS
63
ITEM: BOX BOUNDS pp pp pp
-38.740966796875 46.773033142089844
-11.165448188781738 74.34854888916016
-52.72178649902344 32.792213439941406
ITEM: ATOMS id type xu yu zu
1 1   -2.193   -8.518   14.865
2 1   -0.409   -4.639   15.022
3 1   -5.675   -8.533   14.642
4 1   -5.925   -6.079   11.546
5 1   -6.658   -1.452   13.026
6 1   -8.390   -6.863    8.982
7 1  -11.556   -4.973   10.952
8 1  -10.457   -0.924   12.020
9 1  -15.194   -5.844   10.150
10 1  -16.250   -1.603    9.131
11 1  -19.621   -0.630    8.420
12 1  -18.576    2.887    7.059
13 1  -16.469    4.105   10.175
14 1  -21.018    5.037    5.872
15 1  -19.596    6.053    2.170
16 1  -20.601    2.348    0.138
17 1  -20.891    8.829    0.264
18 1  -19.408    7.568   -3.101
19 1  -21.457    3.891   -3.103
20 1  -19.508    9.396   -5.633
21 1  -19.703    6.279   -8.601
22 1  -22.789    3.464   -7.058
23 1  -19.950    6.991  -11.851
24 1  -21.771    3.192  -12.191
25 1  -24.868    4.627   -9.835
26 1  -22.937    2.164  -15.408
27 1  -25.896   -0.481  -13.968
28 1  -28.094    2.227  -10.942
29 1  -27.733   -2.462  -15.984
30 1  -31.394   -2.484  -14.485
31 1  -30.339   -0.549  -10.297
32 1  -32.920   14.845   -1.554
33 1  -33.401   12.738    3.092
34 1  -29.690   13.983   -2.977
35 1  -30.902   15.506   -6.545
36 1  -35.184   15.134   -5.591
37 1  -29.650   13.806   -9.715
38 1  -32.900   10.972  -10.096
39 1  -31.107    6.617  -11.253
40 1  -35.403   10.913   -7.980
41 1  -36.591    7.176   -8.650
42 1  -32.334    5.539   -7.926
43 1  -38.741    6.142   -6.579
44 1  -37.444    7.909   -3.878
45 1  -33.325    6.150   -3.586
46 1   18.514   43.323  -52.722
47 1  -36.512    6.385    0.967
48 1  -35.653    3.667   -1.704
49 1   21.462   40.966  -47.130
50 1   21.938   37.012  -48.490
51 1  -32.534    1.190   -0.179
52 1   22.350   34.280  -46.047
53 1   21.974   31.737  -48.336
54 1   24.499   33.489  -50.961
55 1   22.293   28.531  -47.766
56 1   24.884   28.027  -49.862
57 1   28.206   31.900  -49.292
58 1   26.368   25.152  -49.848
59 1   29.658   26.484  -51.898
60 1   30.648   29.269  -48.849
61 1  -25.694  -11.165   -0.748
62 1  -23.838   -9.812    2.204
63 1   31.232   25.732  -45.910
ITEM: TIMESTEP
9
ITEM: NUMBER OF ATOMS
63
ITEM: BOX BOUNDS pp pp pp
-55.05335235595703 30.460647583007812
-37.2407112121582 48.27328872680664
-67.68423461914062 17.82976531982422
ITEM: ATOMS id type xu yu zu
1 1   29.494   -5.715  -15.193
2 1   31.233   -9.405  -16.830
3 1   26.132   -6.366  -14.863
4 1   26.213   -9.937  -12.818
5 1   29.321  -12.843  -14.614
6 1   23.211  -11.704  -12.115
7 1   25.007  -14.059   -9.503
8 1   27.772  -15.241  -12.210
9 1   23.237  -16.590   -7.950
10 1   21.683  -18.105  -11.665
11 1   19.942  -20.786  -11.697
12 1   22.591  -22.915   -9.423
13 1   19.825  -25.236   -8.002
14 1  -45.268   21.233    2.503
15 1  -46.058   17.522    3.454
16 1   20.512  -28.616  -10.636
17 1  -44.536   14.713    1.860
18 1  -47.904   12.331    2.458
19 1  -50.244   14.669    0.095
20 1  -47.586    8.789    1.704
21 1  -51.548    8.223    1.847
22 1  -52.085    4.166    0.052
23 1  -54.345   10.571    0.276
24 1   14.295  -37.185  -11.210
25 1  -55.053    5.035    1.722
26 1   10.602  -37.241  -11.467
27 1   36.069   18.325  -66.491
28 1   37.359   14.657  -67.684
29 1   36.932   19.213  -63.589
30 1   39.743   17.080  -63.174
31 1   38.550   15.591  -59.529
32 1  -30.711   -1.034    1.581
33 1  -28.176   -4.875   -0.648
34 1  -29.774   -0.522    4.817
35 1  -33.192   -0.025    6.284
36 1  -34.091    3.403    3.861
37 1   -7.575   58.156  -48.147
38 1  -11.162   57.118  -47.931
39 1  -11.851   57.600  -43.597
40 1  -13.761   58.766  -49.446
41 1  -37.761    4.602    9.021
42 1  -11.210   61.265  -44.769
43 1  -39.281    7.846    8.517
44 1  -35.958    9.148    6.928
45 1  -37.311   11.615    3.498
46 1  -33.541   10.819    8.965
47 1  -33.035   13.969    6.051
48 1  -36.916   14.685    5.584
49 1  -31.248   13.161    2.779
50 1  -29.039   16.840    2.210
51 1  -29.915   17.982   -2.365
52 1  -29.752   19.764    3.899
53 1  -31.266   21.721    0.853
54 1  -27.961   21.142   -2.046
55 1  -32.234   25.223    1.352
56 1  -35.575   25.513   -1.119
57 1  -37.654   29.466   -0.973
58 1  -35.437   24.602   -4.789
59 1  -38.918   24.941   -5.165
60 1  -38.937   28.788   -4.191
61 1  -40.827   24.243   -8.661
62 1  -44.128   26.903   -7.876
63 1   27.978  -16.384  -17.612
ITEM: TIMESTEP
10
ITEM: NUMBER OF ATOMS
63
ITEM: BOX BOUNDS pp pp pp
-27.834518432617188 57.679481506347656
-5.95297384262085 79.56102752685547
-27.179359436035156 58.33464050292969
ITEM: ATOMS id type xu yu zu
1 1   -1.606    7.209  -19.887
2 1    0.748    8.205  -16.756
3 1   -4.781    6.166  -19.467
4 1   -4.433    4.698  -16.415
5 1   -1.940    7.540  -13.508
6 1   -7.244    3.106  -15.070
7 1   -5.862    3.853  -11.214
8 1   -5.368    7.716  -11.839
9 1   -7.687    2.820   -8.000
10 1  -10.643    0.832  -10.396
11 1  -13.157   -1.516   -8.590
12 1  -13.707   -3.703  -11.874
13 1  -13.639   -0.522  -13.894
14 1  -16.549   -5.953  -11.636
15 1  -19.288   -3.310  -10.751
16 1  -17.717    0.192  -13.289
17 1  -22.637   -3.969  -10.870
18 1  -23.150   -0.483  -12.381
19 1  -20.305   -1.284  -15.768
20 1  -26.776    0.478  -13.398
21 1  -25.376    3.085  -15.846
22 1  -22.084    0.684  -19.097
23 1  -27.835    5.484  -17.589
24 1  -25.757    5.939  -21.377
25 1  -26.732    9.624  -21.188
26 1  -21.949    4.699  -21.395
27 1  -21.063    6.587  -24.639
28 1  -22.425   10.712  -23.994
29 1  -17.945    6.461  -26.280
30 1  -17.704   10.074  -27.179
31 1  -18.916   10.907  -23.280
32 1  -23.374   17.239    4.324
33 1  -26.006   18.733    7.503
34 1  -25.026   15.888    1.648
35 1  -23.879   11.763    2.425
36 1  -27.615   10.818    1.766
37 1  -21.797   10.077    0.405
38 1  -22.550   12.529   -3.284
39 1  -20.672   16.436   -1.928
40 1  -20.989   10.875   -6.224
41 1  -20.194   14.410   -8.241
42 1  -18.215   15.969   -4.921
43 1  -18.803   14.468  -11.926
44 1  -17.246   17.801  -11.388
45 1  -15.205   17.594   -7.348
46 1  -15.721   19.572  -13.742
47 1  -12.960   20.838  -11.962
48 1  -12.597   17.014   -9.844
49 1   -9.806   22.341  -13.700
50 1   -7.644   21.215  -10.588
51 1   -8.391   16.506  -10.232
52 1   -3.942   21.729  -10.872
53 1   -2.431   18.963   -8.227
54 1   -4.476   15.772  -10.607
55 1    0.945   18.527   -7.801
56 1   -0.041   14.809   -6.089
57 1   -2.233   11.858   -9.913
58 1    2.384   12.765   -4.084
59 1    0.969    8.904   -4.974
60 1    0.625    9.590   -9.144
61 1    2.451    5.644   -3.628
62 1    1.016    3.327   -6.980
63 1    1.822    6.313  -11.388
ITEM: TIMESTEP
11
ITEM: NUMBER OF ATOMS
63
ITEM: BOX BOUNDS pp pp pp
-59.91978454589844 25.594215393066406
-13.294778823852539 72.21922302246094
-42.97210693359375 42.541893005371094
ITEM: ATOMS id type xu yu zu
1 1   -0.061   16.434   -2.524
2 1    3.860   15.314   -4.417
3 1   -0.049   16.943    1.619
4 1   -1.728   13.164    1.968
5 1    1.066    9.886   -0.125
6 1   -2.881   11.709    4.757
7 1   -2.676    7.742    3.608
8 1   -2.343    8.383   -0.155
9 1   -0.220    5.700    5.323
10 1   -1.673    2.238    4.029
11 1   -1.058   -1.009    6.217
12 1   -1.203   -3.018    3.389
13 1   -3.564   -0.769    1.415
14 1   -1.079   -6.377    3.505
15 1    2.786   -7.067    5.118
16 1    1.437  -10.258    8.727
17 1    4.975   -8.465    3.004
18 1    6.902   -9.504    6.110
19 1  -59.920   27.570  -27.280
20 1    8.924   -7.530    7.929
21 1  -56.635   30.527  -22.387
22 1  -55.606   27.592  -25.611
23 1  -53.362   31.447  -20.899
24 1  -51.374   28.562  -23.231
25 1  -53.192   30.443  -26.506
26 1  -48.340   28.810  -23.606
27 1  -47.473   25.548  -21.353
28 1  -51.690   23.690  -20.889
29 1  -45.545   25.557  -18.803
30 1  -44.779   22.021  -18.836
31 1  -49.051   21.164  -19.833
32 1   10.657    0.676   -1.681
33 1    7.387    1.507    1.030
34 1   10.182   -2.083   -3.721
35 1    7.950   -3.594   -1.088
36 1    5.002   -0.360   -1.168
37 1    8.788   -4.112    2.114
38 1   12.328   -6.115    1.509
39 1   12.315   -6.454   -3.572
40 1  -52.692   36.156  -29.673
41 1  -50.230   33.488  -31.413
42 1  -51.824   34.325  -34.706
43 1  -50.196   29.879  -30.537
44 1  -50.075   28.435  -34.463
45 1  -53.643   25.556  -34.613
46 1  -50.344   30.760  -37.205
47 1  -51.583   27.653  -39.084
48 1   12.857  -13.295   -5.067
49 1  -52.105   28.121  -42.972
50 1   12.630  -10.391  -10.527
51 1   13.731   -7.411   -7.767
52 1   11.224   -9.032  -13.493
53 1    8.039   -8.303  -11.413
54 1   10.260   -6.112   -9.185
55 1    5.493   -7.044  -12.666
56 1    7.192   -4.345  -14.298
57 1   10.447   -2.134  -10.889
58 1    5.657   -2.112  -16.180
59 1    6.112    0.861  -13.343
60 1   10.245    0.763  -13.180
61 1    4.953    4.100  -13.895
62 1    7.716    6.373  -12.038
63 1   11.955    4.420  -12.914
ITEM: TIMESTEP
12
ITEM: NUMBER OF ATOMS
63
ITEM: BOX BOUNDS pp pp pp
-64.64427185058594 20.869728088378906
-7.9545979499816895 77.55940246582031
-39.6395378112793 45.87446212768555
ITEM: ATOMS id type xu yu zu
1 1    1.723    2.553   -7.267
2 1    5.451    3.982   -8.833
3 1    1.065   -0.827   -8.078
4 1    1.312    0.170  -11.794
5 1    5.845    2.331  -12.537
6 1    0.729   -2.399  -14.286
7 1    1.248   -0.402  -16.895
8 1    4.114    1.885  -15.672
9 1    1.787   -1.871  -20.101
10 1    2.835   -5.630  -18.994
11 1    0.206   -7.955  -18.089
12 1   -2.979   -5.670  -19.646
13 1   -0.863   -4.916  -22.540
14 1   -6.465   -6.795  -19.984
15 1   -6.913   -4.669  -22.838
16 1   -3.399   -6.193  -25.944
17 1   -9.872   -4.552  -24.094
18 1   -8.761   -2.336  -27.750
19 1   -5.255   -3.772  -27.925
20 1  -10.321   -3.333  -31.065
21 1   -7.902   -1.282  -32.859
22 1   -4.165   -3.737  -32.224
23 1   -8.228   -0.708  -36.229
24 1   -4.181   -1.134  -36.476
25 1   -4.348   -5.343  -35.480
26 1   -2.750   -0.224  -39.640
27 1    0.949   -1.943  -38.811
28 1   -0.054   -5.010  -35.228
29 1  -62.652   33.743   -0.892
30 1  -64.644   30.393   -0.930
31 1  -63.714   29.733    2.847
32 1  -34.261   32.288    9.672
33 1  -35.262   32.708   14.092
34 1  -35.798   29.355    8.275
35 1  -37.836   28.728   11.843
36 1  -34.667   28.975   14.119
37 1  -40.144   25.648   12.356
38 1  -43.384   27.848   13.021
39 1  -44.570   29.750    9.220
40 1  -46.185   26.304   14.756
41 1  -47.757   29.529   15.744
42 1  -47.747   30.919   11.541
43 1  -51.186   29.495   17.554
44 1  -52.324   29.576   13.705
45 1  -50.617   33.819   12.687
46 1  -55.422   29.203   12.625
47 1  -57.354   31.645   14.637
48 1  -53.909   34.420   13.769
49 1    7.245   -6.083  -22.771
50 1   10.464   -4.503  -21.195
51 1   10.837   -0.285  -23.564
52 1   11.241   -4.269  -17.777
53 1   13.161   -1.337  -18.158
54 1   10.103    0.861  -20.131
55 1   15.234    0.448  -15.078
56 1   14.334    3.680  -16.614
57 1    9.286    3.568  -16.814
58 1   15.447    6.633  -15.935
59 1   11.735    8.096  -16.860
60 1   10.099    5.606  -13.818
61 1   11.276   11.350  -16.682
62 1    7.211   11.269  -16.802
63 1    5.828    7.286  -14.995
ITEM: TIMESTEP
13
ITEM: NUMBER OF ATOMS
63
ITEM: BOX BOUNDS pp pp pp
-52.95331954956055 32.5606803894043
-31.153003692626953 54.36099624633789
-40.55699157714844 44.957008361816406
ITEM: ATOMS id type xu yu zu
1 1   16.553   23.062   -0.753
2 1   17.859   19.865   -1.477
3 1   18.438   25.493   -1.164
4 1   19.907   24.013   -4.622
5 1   21.476   19.531   -4.071
6 1   22.006   25.719   -6.807
7 1   20.551   23.526   -9.854
8 1   20.606   19.719   -7.552
9 1   17.258   24.709  -11.041
10 1   17.569   28.232   -9.506
11 1   15.291   30.196  -10.229
12 1   12.979   29.568   -7.303
13 1   15.634   30.218   -4.524
14 1    9.833   31.323   -6.673
15 1   11.205   34.457   -6.750
16 1   14.544   34.270   -3.902
17 1    9.045   37.332   -5.540
18 1  -43.041  -18.833  -34.143
19 1  -43.106  -16.896  -38.118
20 1  -43.040  -16.486  -31.409
21 1  -41.671  -13.179  -33.746
22 1  -44.718  -12.446  -37.135
23 1  -40.618   -9.885  -31.960
24 1  -42.333   -7.816  -34.826
25 1  -46.074   -9.866  -34.665
26 1  -42.102   -4.099  -35.363
27 1  -46.343   -4.075  -36.314
28 1  -47.066   -8.358  -38.213
29 1  -48.293   -1.326  -37.721
30 1  -51.502   -2.921  -37.659