ITEM: TIMESTEP
0
ITEM: NUMBER OF ATOMS
64
ITEM: BOX BOUNDS pp pp pp
-42.10130310058594 43.412696838378906
15.207500457763672 100.72149658203125
-41.925804138183594 43.58819580078125
ITEM: ATOMS id type xu yu zu
1 1  -40.991   40.174   22.931
2 1   41.110   38.530   24.698
3 1  -39.038   42.248   25.036
4 1  -41.466   42.154   28.444
5 1   41.373   38.304   28.904
6 1  -40.495   43.359   31.453
7 1   42.194   41.607   33.392
8 1   42.672   37.703   32.357
9 1   41.720   42.077   36.913
10 1   38.854   39.344   36.918
11 1   41.344   35.379   35.604
12 1   37.077   38.769   39.640
13 1   36.277   34.749   38.604
14 1   40.285   33.831   39.032
15 1   33.960   32.855   40.597
16 1   34.594   29.764   39.407
17 1   39.546   29.373   39.833
18 1   32.554   27.233   40.697
19 1   34.512   24.051   38.997
20 1   38.496   25.859   40.406
21 1   33.814   20.919   39.694
22 1   34.304   19.161   36.244
23 1   30.995   20.434   33.451
24 1   37.543   19.359   34.562
25 1   36.635   17.052   31.496
26 1   32.582   18.965   30.559
27 1   38.598   17.142   28.807
28 1   35.521   16.126   25.922
29 1   32.397   19.698   26.285
30 1   36.428   15.486   22.587
31 1   32.645   15.208   20.672
32 1   31.390   18.974   22.747
33 1   41.180   41.118  -35.034
34 1   40.929   39.124  -38.743
35 1  -41.137   41.747  -34.131
36 1  -39.898   38.232  -34.026
37 1  -42.101   36.568  -37.290
38 1  -36.790   37.762  -34.796
39 1  -37.088   34.281  -36.477
40 1  -38.778   35.704  -40.361
41 1  -33.600   32.392  -36.947
42 1  -35.614   29.767  -39.329
43 1  -37.532   32.681  -41.926
44 1  -33.414   27.303  -40.888
45 1  -36.164   26.574   41.466
46 1  -37.351   30.289   40.058
47 1  -35.368   24.524   39.119
48 1  -37.846   25.644   36.760
49 1  -40.336   28.211   39.254
50 1  -39.429   23.398   34.202
51 1  -40.243   26.306   32.296
52 1  -41.484   29.918   35.500
53 1  -41.735   26.075   29.536
54 1   40.145   27.355   31.276
55 1   42.277   30.666   32.295
56 1   37.338   27.701   29.313
57 1   36.259   30.028   31.591
58 1   39.038   33.719   30.907
59 1   32.506   31.562   31.273
60 1   33.801   34.943   32.058
61 1   36.647   35.586   29.041
62 1   31.526   37.992   32.753
63 1   34.336   41.068   31.804
64 1   36.613   39.687   28.030
ITEM: TIMESTEP
1
ITEM: NUMBER OF ATOMS
64
ITEM: BOX BOUNDS pp pp pp
-4.619455814361572 80.89454650878906
18.662628173828125 104.17662811279297
1.298866868019104 86.8128662109375
ITEM: ATOMS id type xu yu zu
1 1    4.787   33.460   36.259
2 1    8.545   32.531   34.119
3 1    2.763   36.007   34.506
4 1    5.740   38.081   32.737
5 1    8.587   34.847   30.527
6 1    5.297   41.034   31.067
7 1    8.173   40.406   28.403
8 1    7.573   36.726   27.552
9 1    8.265   42.262   25.606
10 1   10.500   39.693   24.041
11 1    7.974   35.735   23.449
12 1   12.056   39.962   21.398
13 1   12.614   35.877   20.567
14 1    8.712   35.256   19.865
15 1   14.724   34.787   18.411
16 1   13.272   31.258   17.829
17 1    8.382   32.322   16.763
18 1   14.542   29.098   15.061
19 1   17.415   28.206   16.680
20 1   16.080   23.974   16.612
21 1   20.584   28.857   15.078
22 1   22.248   26.665   17.688
23 1   20.092   22.522   17.120
24 1   25.347   26.156   17.762
25 1   25.717   25.983   21.793
26 1   29.265   28.992   22.314
27 1   26.417   22.992   23.251
28 1   22.385   21.774   23.842
29 1   19.664   25.217   24.176
30 1   21.637   19.305   26.313
31 1   17.893   18.663   24.471
32 1   16.866   22.843   24.112
33 1   -0.478   24.944    4.030
34 1   -4.619   23.366    2.315
35 1    1.284   26.458    1.299
36 1    1.185   30.261    3.219
37 1    2.067   28.561    7.173
38 1    3.515   32.585    1.911
39 1    3.640   34.767    4.740
40 1    4.523   31.715    8.204
41 1    0.454   37.073    5.297
42 1   -1.041   34.470    8.324
43 1    2.671   34.383   10.034
44 1   -3.545   35.476   10.500
45 1   -1.982   32.936   13.618
46 1    2.568   34.327   14.194
47 1   -3.298   32.486   16.614
48 1   -0.409   29.282   17.373
49 1    2.666   32.161   17.286
50 1   -0.813   27.469   20.068
51 1    3.218   26.417   20.381
52 1    5.177   30.487   20.399
53 1    4.533   24.012   22.575
54 1    8.012   25.720   22.937
55 1    6.326   29.853   23.855
56 1   10.711   24.730   24.543
57 1   12.555   27.918   24.148
58 1    9.754   31.539   26.110
59 1   16.062   28.343   25.016
60 1   15.487   32.498   25.349
61 1   12.675   32.233   27.992
62 1   18.151   34.574   26.333
63 1   15.878   36.954   28.571
64 1   13.077   34.325   31.693
ITEM: TIMESTEP
2
ITEM: NUMBER OF ATOMS
64
ITEM: BOX BOUNDS pp pp pp
-3.21522855758667 82.29877471923828
12.872638702392578 98.38664245605469
-3.4079437255859375 82.1060562133789
ITEM: ATOMS id type xu yu zu
1 1    0.996   42.329   29.777
2 1    5.461   41.706   29.757
3 1   -0.726   41.241   26.335
4 1    2.467   42.631   24.438
5 1    6.710   40.301   26.023
6 1    2.552   43.073   20.872
7 1    6.168   42.361   20.615
8 1    6.397   39.039   22.734
9 1    7.565   42.317   17.369
10 1   10.198   39.322   17.764
11 1    7.989   35.937   20.909
12 1   12.215   37.944   15.300
13 1   13.252   34.841   17.817
14 1    9.240   33.622   18.443
15 1   15.559   32.129   16.677
16 1   13.954   29.031   18.580
17 1    9.826   29.389   18.278
18 1   15.183   25.505   17.764
19 1   11.815   23.632   18.965
20 1    9.335   25.998   16.568
21 1   11.667   19.885   18.436
22 1   15.009   18.677   19.973
23 1   15.072   20.034   24.221
24 1   15.803   15.486   20.102
25 1   19.633   15.690   21.493
26 1   18.650   19.016   24.003
27 1   21.665   12.873   22.936
28 1   21.862   14.738   26.759
29 1   22.498   19.275   25.785
30 1   24.016   13.941   29.640
31 1   26.971   14.192   27.610
32 1   26.062   18.376   26.367
33 1    6.422   32.674   -1.904
34 1    4.880   37.122   -3.408
35 1    7.951   32.646    1.473
36 1    4.410   33.706    3.298
37 1    4.441   37.208    0.822
38 1    4.532   34.914    6.797
39 1    2.538   31.668    8.353
40 1    5.519   30.204   11.218
41 1   -0.825   31.596    9.676
42 1   -0.274   29.410   12.304
43 1    3.351   31.528   13.928
44 1   -3.215   28.371   15.116
45 1   -0.732   27.554   17.843
46 1    3.654   27.976   16.477
47 1   -1.638   27.165   21.543
48 1    2.016   26.488   22.871
49 1    4.023   29.203   19.897
50 1    2.768   27.224   26.220
51 1    6.485   27.197   25.508
52 1    6.883   30.473   22.901
53 1    8.677   27.796   28.516
54 1   11.335   29.738   26.440
55 1    8.483   32.386   25.670
56 1   14.603   30.632   28.065
57 1   15.275   33.874   25.665
58 1   10.745   36.061   24.679
59 1   17.613   35.905   26.165
60 1   15.880   39.127   24.449
61 1   12.152   38.861   26.489
62 1   16.960   42.501   24.094
63 1   13.520   44.848   24.167
64 1   10.621   43.224   27.828
ITEM: TIMESTEP
3
ITEM: NUMBER OF ATOMS
64
ITEM: BOX BOUNDS pp pp pp
-20.005958557128906 65.50804138183594
0.245623379945755 85.7596206665039
-3.4418563842773438 82.0721435546875
ITEM: ATOMS id type xu yu zu
1 1    7.230   22.198   10.895
2 1    9.758   24.463    8.391
3 1    5.331   23.792   13.958
4 1    8.115   25.883   14.667
5 1    9.007   28.163   10.015
6 1    7.580   28.593   17.336
7 1    9.339   31.563   15.498
8 1    7.820   31.099   11.650
9 1    8.948   35.130   17.269
10 1    9.967   36.883   13.987
11 1    6.831   34.904   10.861
12 1    9.850   40.676   14.046
13 1    8.523   41.266    9.916
14 1    5.634   38.485   10.155
15 1    7.564   44.849    9.040
16 1    4.649   43.806    6.024
17 1    2.426   40.631    8.514
18 1    2.775   46.933    5.223
19 1   -0.529   44.904    4.934
20 1   -0.328   43.525    8.636
21 1   37.803    8.700   68.726
22 1   37.933    9.339   64.878
23 1   40.998   12.739   64.719
24 1   34.644   10.916   63.502
25 1   35.106    9.165   60.029
26 1   35.967    5.999   62.063
27 1   32.668    9.068   57.944
28 1   34.242    5.999   56.489
29 1   33.851    3.051   59.681
30 1   32.874    4.354   53.504
31 1   35.141    1.209   53.866
32 1   33.110    0.246   57.356
33 1   49.619   72.714   -3.442
34 1   50.534   74.558    0.584
35 1  -20.006   33.479   16.795
36 1  -17.791   35.773   18.921
37 1  -18.219   33.387   21.740
38 1  -14.290   37.119   17.913
39 1  -12.563   37.100   21.848
40 1  -14.333   33.846   23.658
41 1   -8.726   37.580   22.366
42 1   -7.939   36.519   18.091
43 1   -9.738   33.077   18.116
44 1   -4.914   36.389   17.176
45 1   -5.874   36.518   13.178
46 1   -2.852   38.982   11.711
47 1   -6.115   33.685   11.443
48 1   -5.217   34.804    7.900
49 1   -1.645   36.334    9.537
50 1   -4.577   32.228    5.353
51 1   -1.041   34.137    3.468
52 1    1.676   35.532    6.961
53 1    0.741   33.057    0.968
54 1    4.036   35.227    1.752
55 1    4.545   33.578    5.501
56 1    7.098   34.976   -0.062
57 1    9.886   36.079    2.949
58 1    9.180   33.181    6.696
59 1   13.213   35.797    2.335
60 1   14.004   34.562    6.036
61 1   12.177   31.026    6.469
62 1   17.147   34.516    6.866
63 1   17.272   31.626    9.930
64 1   14.004   27.894    8.944
ITEM: TIMESTEP
4
ITEM: NUMBER OF ATOMS
64
ITEM: BOX BOUNDS pp pp pp
-2.2830584049224854 83.23094177246094
8.061105728149414 93.57510375976562
1.24478280544281 86.75878143310547
ITEM: ATOMS id type xu yu zu
1 1   -0.636   42.345   23.784
2 1    2.140   42.833   26.191
3 1   -0.436   40.052   21.037
4 1    3.083   41.298   19.848
5 1    6.330   40.597   23.496
6 1    4.519   40.011   16.458
7 1    8.058   40.770   17.487
8 1    7.849   38.707   20.629
9 1   10.477   39.611   14.970
10 1   13.305   38.467   17.521
11 1   10.572   35.689   20.607
12 1   16.522   36.851   16.120
13 1   16.923   34.861   19.816
14 1   13.002   33.299   19.504
15 1   19.296   32.683   20.693
16 1   17.002   31.023   23.714
17 1   12.862   29.597   21.425
18 1   18.467   28.783   25.902
19 1   15.371   25.899   25.842
20 1   14.409   26.242   21.950
21 1   15.842   22.662   27.193
22 1   14.176   20.712   24.042
23 1   16.553   21.951   20.078
24 1   13.669   17.356   24.163
25 1   17.195   16.315   24.343
26 1   18.812   19.754   22.206
27 1   18.159   13.248   24.029
28 1   14.373   11.641   23.770
29 1   13.097   13.481   20.051
30 1   13.926    8.345   23.707
31 1   15.582    8.061   19.808
32 1   12.511   10.565   17.845
33 1   -0.806   38.159    1.492
34 1   -2.283   34.012    1.245
35 1    1.000   38.684    4.833
36 1    3.299   35.757    4.245
37 1    0.776   32.989    3.967
38 1    6.079   35.395    6.437
39 1    4.644   33.264    8.976
40 1    0.468   30.821    7.947
41 1    6.831   32.078   11.572
42 1    4.700   29.075   13.292
43 1    1.330   30.524   11.526
44 1    5.691   25.884   12.599
45 1    5.241   24.623   16.668
46 1    9.448   25.641   18.255
47 1    2.887   26.189   18.404
48 1    4.461   25.963   22.210
49 1    7.249   27.744   20.517
50 1    3.271   27.353   25.108
51 1    6.878   28.080   26.141
52 1    8.399   30.991   22.956
53 1    7.176   29.437   29.537
54 1   10.355   31.140   28.697
55 1    8.246   33.251   25.631
56 1   11.914   33.161   30.948
57 1   13.786   35.616   28.258
58 1   10.242   37.016   25.637
59 1   16.080   38.699   29.297
60 1   15.498   40.528   26.190
61 1   11.140   40.681   26.200
62 1   17.057   43.776   25.044
63 1   14.335   45.033   23.209
64 1   15.719   48.544   20.206
ITEM: TIMESTEP
5
ITEM: NUMBER OF ATOMS
64
ITEM: BOX BOUNDS pp pp pp
-31.342845916748047 54.1711540222168
13.903331756591797 99.41732788085938
-28.418994903564453 57.09500503540039
ITEM: ATOMS id type xu yu zu
1 1  -31.343   52.106   -8.064
2 1   28.594   38.711   51.005
3 1   22.629   36.100   52.658
4 1   22.829   37.259   49.309
5 1   27.145   36.891   47.603
6 1   20.753   35.471   46.812
7 1   22.837   36.439   44.100
8 1   25.936   34.419   45.430
9 1   21.556   35.754   40.510
10 1   24.934   36.009   39.174
11 1   27.647   33.007   42.055
12 1   25.346   35.419   36.119
13 1   28.599   33.689   36.499
14 1   27.295   30.631   39.294
15 1   29.997   32.245   33.332
16 1   31.753   29.112   34.756
17 1   28.686   27.196   37.421
18 1   33.558   26.741   32.931
19 1   30.713   25.853   30.352
20 1   28.071   26.316   33.731
21 1   30.744   22.644   28.934
22 1   33.738   20.844   31.537
23 1   35.685   17.623   28.885
24 1   32.750   19.478   34.731
25 1   36.312   17.453   35.707
26 1   36.225   15.247   32.047
27 1   38.961   18.899   35.791
28 1  -16.437   30.512  -25.870
29 1   40.474   13.903   31.825
30 1  -13.267   30.657  -25.072
31 1  -12.110   28.883  -28.419
32 1   43.035   16.521   31.122
33 1  -15.646   23.985    0.225
34 1  -17.703   24.671   -4.056
35 1  -18.056   23.457    2.583
36 1  -21.253   24.404    0.408
37 1  -19.510   27.137   -1.983
38 1  -23.410   22.419   -0.890
39 1  -24.261   24.686   -4.225
40 1  -22.823   29.069   -3.347
41 1  -26.789   24.362   -6.799
42 1  -24.433   26.262   -9.486
43 1  -24.701   29.469   -6.409
44 1  -25.360   26.638  -13.334
45 1  -26.186   30.645  -13.465
46 1  -27.738   31.177   -8.926
47 1  -28.739   32.227  -16.035
48 1  -27.211   35.907  -16.164
49 1   26.313   23.363   44.993
50 1  -24.991   37.115  -13.694
51 1  -23.001   39.891  -16.417
52 1   30.257   27.582   43.812
53 1  -20.296   42.256  -14.932
54 1  -20.607   44.808  -17.698
55 1   32.352   30.403   44.863
56 1  -18.737   48.204  -17.284
57 1   35.882   35.551   42.041
58 1   31.285   34.779   44.342
59 1   36.351   39.114   41.038
60 1   32.236   39.168   40.249
61 1   31.208   38.361   43.937
62 1   30.365   42.194   39.062
63 1   27.308   41.416   40.921
64 1   28.365   41.061   45.896
ITEM: TIMESTEP
6
ITEM: NUMBER OF ATOMS
64
ITEM: BOX BOUNDS pp pp pp
-2.843684196472168 82.67031860351562
14.615296363830566 100.1292953491211
-7.767961502075195 77.74604034423828
ITEM: ATOMS id type xu yu zu
1 1   -0.840   37.320   32.404
2 1   81.073   39.249   37.505
3 1    1.703   36.748   34.230
4 1    4.402   38.909   32.057
5 1    8.697   36.564   30.508
6 1    3.166   41.397   29.408
7 1    6.561   41.730   27.297
8 1    7.570   37.653   27.329
9 1    6.556   43.236   23.880
10 1    9.623   40.771   23.161
11 1    7.922   36.591   23.543
12 1   11.174   41.054   20.195
13 1   12.515   37.305   20.064
14 1    8.915   35.965   20.136
15 1   14.479   36.228   17.202
16 1   13.870   32.465   17.717
17 1    8.657   32.602   17.407
18 1   15.441   30.328   15.670
19 1   12.574   27.490   15.691
20 1    9.281   30.265   14.725
21 1   12.293   25.612   18.570
22 1   13.580   22.423   17.279
23 1   11.682   22.459   12.639
24 1   12.331   19.173   18.717
25 1   16.101   17.729   19.446
26 1   16.871   20.507   22.459
27 1   16.412   14.892   20.477
28 1   14.894   15.572   24.250
29 1   10.214   14.684   24.319
30 1   16.010   18.481   26.016
31 1   12.815   18.364   28.886
32 1   11.440   14.615   27.757
33 1    3.902   32.157   -4.668
34 1    4.648   35.726   -7.768
35 1    0.857   32.588   -3.070
36 1    1.523   31.438    0.253
37 1    4.623   33.901   -0.148
38 1   -1.189   32.243    2.590
39 1    0.621   29.641    5.569
40 1    3.154   32.863    7.974
41 1   -1.309   27.943    8.114
42 1   -0.802   30.962   10.763
43 1    3.171   31.088   11.304
44 1   -2.844   31.231   13.494
45 1   -1.128   28.892   15.557
46 1    3.454   30.741   15.653
47 1   -1.753   28.428   19.200
48 1    1.616   26.780   20.124
49 1    3.332   30.853   19.405
50 1    2.293   24.950   23.412
51 1    6.227   26.129   23.307
52 1    6.770   30.599   22.001
53 1    8.797   24.741   25.740
54 1   11.330   27.616   24.491
55 1    8.703   30.975   25.189
56 1   14.946   28.063   25.851
57 1   15.364   31.714   24.778
58 1   11.841   34.073   26.490
59 1   18.268   33.192   25.382
60 1   17.116   37.108   25.622
61 1   14.135   35.961   28.500
62 1   19.191   40.102   26.491
63 1   19.723   38.969   30.302
64 1   19.558   43.766   32.628
ITEM: TIMESTEP
7
ITEM: NUMBER OF ATOMS
64
ITEM: BOX BOUNDS pp pp pp
-10.440498352050781 75.07350158691406
1.442499041557312 86.95649719238281
-13.06128978729248 72.45271301269531
ITEM: ATOMS id type xu yu zu
1 1   18.286   59.121   52.052
2 1   16.551   62.528   50.744
3 1   17.789   58.256   54.941
4 1   19.886   54.817   54.756
5 1   24.405   56.375   53.745
6 1   20.199   52.025   57.509
7 1   24.304   51.380   56.560
8 1   25.632   55.590   57.103
9 1   25.835   49.174   58.722
10 1   29.487   50.581   58.015
11 1   29.357   55.104   58.782
12 1   32.342   48.680   59.718
13 1   34.739   52.055   60.121
14 1   -4.133   21.263   -8.739
15 1    2.048   18.714   -8.133
16 1    1.028   16.276   -4.778
17 1    4.223   13.099   -4.547
18 1    0.418   17.759   -1.814
19 1    2.017   14.831   -0.091
20 1    5.511   15.280   -1.944
21 1    2.328   14.421    3.369
22 1    5.394   11.860    3.482
23 1    8.273   13.436    0.919
24 1    6.862   10.266    6.746
25 1   10.232    9.347    5.187
26 1    9.616   10.033    0.898
27 1   11.409    6.237    6.010
28 1   11.165    4.896    2.178
29 1   13.136    8.309   -0.307
30 1   12.132    1.442    1.131
31 1   12.265    1.938   -3.205
32 1   13.471    5.668   -3.070
33 1   -9.556   12.626   15.057
34 1   -7.919   13.327   11.148
35 1  -10.440   15.256   16.369
36 1   -7.606   17.010   14.373
37 1  -10.082   17.133   10.510
38 1   -6.305   20.397   15.483
39 1   -4.897   21.334   12.303
40 1   -7.949   20.491    9.022
41 1   -3.441   24.425   11.784
42 1   -2.730   23.964    8.011
43 1   -7.055   23.682    7.455
44 1   -1.338   26.451    6.379
45 1   -3.401   25.562    2.422
46 1    0.472   25.594   -0.360
47 1   -6.150   27.708    0.762
48 1   -3.817   28.845   -2.373
49 1   -0.718   29.187   -0.380
50 1   -4.556   32.203   -4.532
51 1   -2.669   31.115   -7.852
52 1   -4.379   27.170   -8.591
53 1   -2.531   33.223  -10.832
54 1   -1.776   29.711  -13.061
55 1   -5.428   27.775  -11.875
56 1   35.000   62.815   53.966
57 1   34.589   59.272   53.415
58 1   29.697   58.490   54.821
59 1   35.220   58.447   50.151
60 1   33.229   55.170   50.344
61 1   29.529   57.060   51.541
62 1   33.067   52.679   47.374
63 1   31.669   49.320   49.749
64 1   30.181   45.607   46.831
ITEM: TIMESTEP
8
ITEM: NUMBER OF ATOMS
64
ITEM: BOX BOUNDS pp pp pp
-3.050987958908081 82.4630126953125
10.956499099731445 96.47049713134766
-0.5843549370765686 84.92964172363281
ITEM: ATOMS id type xu yu zu
1 1    1.585   45.396   31.551
2 1    2.422   49.045   29.576
3 1    2.189   42.712   29.850
4 1    6.153   43.988   28.833
5 1    9.161   40.493   28.794
6 1    6.235   45.343   26.009
7 1    9.563   43.646   24.590
8 1    8.774   39.678   25.345
9 1   10.509   43.906   21.003
10 1   12.316   40.759   20.536
11 1    8.759   37.580   21.584
12 1   13.570   40.045   17.353
13 1   14.377   36.043   18.294
14 1   10.042   35.253   19.165
15 1   15.573   33.681   16.363
16 1   13.751   30.775   18.837
17 1    8.661   31.327   18.923
18 1   14.666   27.210   17.661
19 1   11.321   25.499   18.636
20 1    9.070   27.947   16.943
21 1   10.749   22.052   17.597
22 1   13.378   20.266   20.336
23 1   17.373   20.221   17.805
24 1   12.745   16.605   21.460
25 1   15.951   17.006   23.224
26 1   17.802   17.364   19.886
27 1   17.254   14.572   25.516
28 1   20.974   13.612   23.715
29 1   19.728   10.956   19.783
30 1   23.822   16.278   23.174
31 1   26.116   13.741   20.385
32 1   23.420   11.381   19.287
33 1    7.321   36.761   -0.584
34 1    4.201   38.970    1.472
35 1    7.467   33.079   -0.419
36 1    5.689   32.738    2.913
37 1    2.309   35.355    1.702
38 1    5.524   29.529    4.399
39 1    2.671   30.348    6.370
40 1    0.005   26.440    6.942
41 1    2.778   32.296    9.682
42 1   -0.482   30.024   11.262
43 1    0.673   26.423   10.572
44 1   -3.051   30.696   14.157
45 1   -1.257   27.925   16.799
46 1    3.286   29.366   16.593
47 1   -2.616   27.038   20.359
48 1    0.988   26.459   22.061
49 1    2.927   30.221   20.096
50 1    1.366   25.555   25.353
51 1    5.216   26.768   25.583
52 1    5.260   31.115   24.359
53 1    7.174   26.652   29.060
54 1   10.372   28.306   27.712
55 1    8.449   31.523   26.256
56 1   12.729   28.790   29.720
57 1   14.492   31.628   27.166
58 1   11.305   35.049   26.954
59 1   17.684   32.939   27.665
60 1   17.023   36.083   25.458
61 1   13.705   37.399   28.131
62 1   19.746   38.483   24.467
63 1   17.708   42.013   23.452
64 1   15.446   43.462   27.747
ITEM: TIMESTEP
9
ITEM: NUMBER OF ATOMS
64
ITEM: BOX BOUNDS pp pp pp
-15.931693077087402 69.58230590820312
-7.030742168426514 78.48326110839844
-3.0960922241210938 82.41790771484375
ITEM: ATOMS id type xu yu zu
1 1   -0.858   40.930   14.268
2 1    0.326   44.568   13.014
3 1   -3.913   40.522   14.751
4 1   -5.243   44.621   14.728
5 1   -2.473   47.325   12.282
6 1   -9.147   45.358   14.026
7 1   -8.812   48.491   12.588
8 1   -5.388   47.767    9.923
9 1  -11.580   50.395   11.215
10 1   -9.297   52.843    9.443
11 1   -6.489   50.215    6.598
12 1   33.726    5.674   60.605
13 1   36.730    5.473   58.349
14 1   -8.368   52.055    4.110
15 1   37.037    8.270   55.666
16 1   38.943    6.435   53.172
17 1   36.932    1.943   53.009
18 1   39.622    7.920   50.428
19 1   40.305    4.547   48.244
20 1   36.356    3.011   49.464
21 1   40.876    5.015   44.329
22 1   37.200    3.804   43.657
23 1   37.105   -0.147   46.450
24 1   35.967    3.083   40.539
25 1   38.808    4.749   38.264
26 1   38.494    8.283   40.499
27 1   38.382    4.872   34.748
28 1   42.211    6.851   34.638
29 1   42.618    9.254   38.973
30 1   43.534    8.687   31.419
31 1   47.831    9.011   31.622
32 1   47.482   12.020   28.408
33 1   -6.803   26.246    6.527
34 1   -4.496   29.792    5.888
35 1   -9.509   26.748    9.084
36 1  -10.750   29.519    7.153
37 1   -7.088   32.078    7.965
38 1  -14.156   30.761    7.833
39 1  -13.301   34.078    5.284
40 1   -9.520   35.671    6.837
41 1  -15.932   36.546    4.182
42 1  -13.571   38.969    1.654
43 1  -10.257   37.283    3.656
44 1  -14.286   42.939    1.502
45 1   31.820   -7.031   51.142
46 1   33.121   -2.145   50.984
47 1   -9.970   41.403   -1.971
48 1   -7.142   43.895   -3.096
49 1   -8.369   46.497   -0.487
50 1   -3.432   42.917   -2.853
51 1   -2.281   46.691   -2.313
52 1   -4.887   48.161    1.227
53 1    1.182   47.298   -1.882
54 1    0.205   50.553    0.399
55 1   -1.831   48.439    3.223
56 1    3.040   52.405    1.904
57 1    0.765   54.055    5.250
58 1   -1.331   50.166    7.229
59 1    2.478   56.035    7.003
60 1   -0.075   55.849    9.793
61 1    0.283   51.496   10.090
62 1    0.778   57.585   13.093
63 1   -0.512   54.699   15.566
64 1    1.027   50.367   14.180
ITEM: TIMESTEP
10
ITEM: NUMBER OF ATOMS
64
ITEM: BOX BOUNDS pp pp pp
-19.720109939575195 65.79389190673828
-0.4568746089935303 85.05712890625
-45.20437240600586 40.309627532958984
ITEM: ATOMS id type xu yu zu
1 1   -8.679   12.824   35.355
2 1  -11.035   11.764   32.032
3 1  -10.012   12.832   38.325
4 1  -10.492   16.662   37.891
5 1  -12.734   16.804   34.029
6 1   -7.302   18.889   37.722
7 1   -8.632   22.067   35.325
8 1  -11.921   20.278   34.395
9 1   -6.740   23.619   32.728
10 1   -9.318   22.327   29.940
11 1  -12.598   26.076   30.061
12 1   -8.692   21.321   26.414
13 1  -12.812   21.543   25.771
14 1  -12.348   25.463   26.027
15 1   64.449   40.975   49.992
16 1   60.658   41.607   50.617
17 1   59.338   38.053   48.808
18 1   59.522   42.318   53.685
19 1   58.633   46.331   52.712
20 1   57.238   46.730   57.133
21 1   60.874   48.457   51.347
22 1   59.250   51.618   52.972
23 1   59.097   50.659   57.349
24 1  -18.131   34.967   25.201
25 1  -19.720   36.336   28.809
26 1  -18.032   33.599   31.511
27 1   54.798   57.279   56.500
28 1   88.053   28.978  -12.833
29 1   12.824    6.295  -38.777
30 1   88.199   32.033  -11.987
31 1   11.676   11.239  -36.013
32 1   15.030    9.339  -38.046
33 1   16.001   23.540  -37.015
34 1   20.147   21.721  -38.266
35 1   13.340   22.225  -38.867
36 1   15.060   21.813  -41.873
37 1   17.653   19.705  -40.049
38 1   13.693   20.763  -45.204
39 1  -16.010   50.134   26.488
40 1  -13.419   47.675   29.642
41 1  -15.793   49.055   22.613
42 1  -12.076   47.951   22.882
43 1  -11.972   45.914   26.729
44 1  -10.928   46.495   20.304
45 1   -8.243   44.583   22.232
46 1  -10.602   42.151   25.594
47 1   -5.902   42.651   20.556
48 1   -3.934   41.655   23.579
49 1   -7.218   40.681   26.044
50 1   -1.017   38.851   23.462
51 1   -1.283   38.141   27.147
52 1   -6.044   37.122   27.809
53 1    0.672   35.257   28.556
54 1   -0.709   35.111   32.392
55 1   -4.837   35.412   30.955
56 1   -0.131   32.389   34.581
57 1   -2.826   33.325   37.278
58 1   -6.963   33.732   34.388
59 1   -3.449   31.011   40.026
60 1   27.408    3.930  -31.792
61 1   -7.992   33.209   37.758
62 1   25.660    2.652  -29.052
63 1   26.173   -0.457  -30.109
64 1  -10.782   26.132   41.691
ITEM: TIMESTEP
11
ITEM: NUMBER OF ATOMS
64
ITEM: BOX BOUNDS pp pp pp
-18.370254516601562 67.14374542236328
2.9125759601593018 88.42657470703125
-17.171329498291016 68.34266662597656
ITEM: ATOMS id type xu yu zu
1 1   26.358   72.597    7.358
2 1   29.282   74.015    5.650
3 1   23.146   73.693    5.912
4 1   24.596   77.400    5.105
5 1   28.709   77.119    3.036
6 1   22.482   79.714    3.959
7 1   25.652   81.448    1.985
8 1   27.461   78.385   -0.272
9 1   -3.922   12.403   36.025
10 1   -0.590   12.826   35.013
11 1    0.010    8.709   32.607
12 1    0.016   15.461   32.869
13 1   -0.866   18.262   35.670
14 1    1.366   15.997   38.985
15 1    0.049   21.948   34.852
16 1    0.524   21.236   31.406
17 1    3.341   18.219   31.023
18 1    1.316   23.764   28.650
19 1    5.488   23.955   29.471
20 1    5.824   19.876   29.192
21 1    7.583   25.546   27.123
22 1   10.431   23.082   27.969
23 1    9.022   18.825   26.710
24 1   13.334   23.849   26.428
25 1   15.033   20.237   27.624
26 1   12.481   17.939   25.585
27 1   18.104   19.419   27.215
28 1   17.314   15.865   26.047
29 1   14.489   16.579   22.331
30 1   20.335   13.637   25.643
31 1   18.533    9.905   26.675
32 1   21.810    8.273   28.916
33 1   11.324   74.244  -17.171
34 1  -16.555    5.882   15.709
35 1   11.297   75.384  -13.783
36 1   12.865   78.722  -14.410
37 1  -18.370    7.021   18.476
38 1  -16.334    9.779   24.404
39 1  -12.934    8.813   25.455
40 1  -10.587   12.616   23.001
41 1   17.277   77.497  -11.818
42 1   -7.997    7.333   22.675
43 1   -7.962   10.446   25.011
44 1   -4.906    5.146   22.380
45 1   -2.373    8.361   21.025
46 1   -2.582   11.611   24.685
47 1    1.217    7.631   20.153
48 1    2.518    7.452   23.732
49 1    1.213   11.335   23.847
50 1    6.198    6.314   24.522
51 1    4.651    3.079   25.102
52 1    0.870    4.307   27.572
53 1   35.881   72.556   -9.633
54 1    7.598    2.913   29.516
55 1   32.177   75.970   -5.943
56 1   38.768   74.068   -4.001
57 1    8.717    5.092   34.143
58 1   32.766   77.125   -1.559
59 1   10.599    6.114   36.909
60 1    8.229    8.635   38.029
61 1   34.171   77.795    1.742
62 1    9.248   10.880   41.024
63 1    5.744   11.215   42.270
64 1   32.678   78.290    5.647
ITEM: TIMESTEP
12
ITEM: NUMBER OF ATOMS
64
ITEM: BOX BOUNDS pp pp pp
-10.525869369506836 74.98812866210938
-9.860651016235352 75.65335083007812
-8.858543395996094 76.65545654296875
ITEM: ATOMS id type xu yu zu
1 1   10.065   46.481   15.816
2 1    9.052   47.549   19.474
3 1    7.853   44.196   14.555
4 1    8.419   42.073   17.618
5 1    6.615   44.734   21.319
6 1    7.140   38.494   17.516
7 1    7.246   38.358   21.574
8 1    4.613   41.655   22.081
9 1    6.159   35.271   23.096
10 1    4.901   36.633   26.218
11 1    1.890   40.235   24.871
12 1    2.813   34.507   28.548
13 1    0.357   37.327   29.889
14 1   -0.600   38.249   26.436
15 1   -2.353   36.640   32.068
16 1   -0.130   38.057   34.846
17 1    1.207   42.666   33.337
18 1   -2.060   38.041   38.215
19 1    1.158   40.188   40.141
20 1    1.300   43.247   36.904
21 1    0.825   41.474   43.536
22 1   55.368   -9.165    8.589
23 1   56.535   -7.370    4.688
24 1   54.673   -6.782   10.932
25 1   51.293   -5.367    8.802
26 1   53.033   -6.230    5.201
27 1   48.090   -6.766    9.555
28 1   46.316   -7.055    6.349
29 1   49.813   -8.622    3.682
30 1   43.818   -9.861    5.822
31 1   40.816   -7.158    7.328
32 1   38.861   -6.597    3.575
33 1    2.488   34.775    7.440
34 1    0.731   36.223   11.597
35 1    2.096   31.165    7.304
36 1   -2.025   30.606    8.245
37 1   -2.194   34.439   10.475
38 1   -2.592   27.259    9.683
39 1   -4.403   28.597   12.702
40 1   -0.594   29.463   15.268
41 1   -6.418   31.131   12.311
42 1   -6.282   33.327   15.941
43 1   -2.888   31.943   16.678
44 1   -8.979   32.812   18.335
45 1   -8.659   35.834   19.942
46 1   -3.961   36.259   21.171
47 1  -10.526   38.999   18.572
48 1   -9.573   41.286   21.349
49 1   -5.726   39.352   22.160
50 1   -9.755   45.280   21.163
51 1   -7.447   45.622   24.461
52 1   -3.864   42.655   24.398
53 1   50.585   -5.364   -8.859
54 1   -2.840   47.611   27.784
55 1   -1.442   45.235   24.929
56 1   -0.729   49.913   29.749
57 1    1.637   47.218   30.389
58 1    2.758   45.148   25.886
59 1    4.944   48.009   32.250
60 1    6.957   44.981   30.599
61 1    6.444   46.410   26.600
62 1   10.426   44.462   31.417
63 1   10.818   42.466   28.433
64 1   10.050   45.595   24.520
ITEM: TIMESTEP
13
ITEM: NUMBER OF ATOMS
64
ITEM: BOX BOUNDS pp pp pp
-17.859832763671875 67.65416717529297
-6.71597957611084 78.79801940917969
-2.634273052215576 82.87973022460938
ITEM: ATOMS id type xu yu zu
1 1  -11.701   32.131   33.116
2 1  -13.304   35.691   31.328
3 1   -9.787   30.088   30.282
4 1  -12.916   30.911   27.353
5 1  -13.380   35.643   26.621
6 1  -12.598   29.364   23.969
7 1  -14.522   32.559   21.710
8 1  -12.197   35.787   22.979
9 1  -14.765   32.372   17.941
10 1  -15.607   36.029   17.667
11 1  -12.562   38.317   19.985
12 1  -16.280   37.565   14.579
13 1  -14.972   41.411   15.791
14 1  -11.084   40.075   17.209
15 1   57.159   -0.501   23.793
16 1  -12.289   45.904   14.767
17 1   -8.896   43.579   15.396
18 1   60.914    4.534   24.459