ITEM: TIMESTEP
0
ITEM: NUMBER OF ATOMS
63
ITEM: BOX BOUNDS pp pp pp
-42.770599365234375 42.74340057373047
-4.533769607543945 80.98023223876953
-24.1117000579834 61.40229797363281
ITEM: ATOMS id type xu yu zu
1 1   13.134    0.576  -16.925
2 1    9.478    2.946  -16.474
3 1   16.386    2.281  -16.844
4 1   16.014    3.397  -12.780
5 1   18.384    5.269  -11.026
6 1   20.951    3.359  -12.809
7 1   21.997    6.344  -14.991
8 1   23.333    1.867  -10.683
9 1   25.926    1.676  -13.606
10 1   26.426    5.817  -15.189
11 1   28.978    0.326  -13.383
12 1   30.803    3.306  -11.525
13 1   29.778    6.174  -14.007
14 1   34.399    3.278  -11.154
15 1   34.267    5.276   -8.043
16 1   33.048    9.870   -9.382
17 1   37.393    5.349   -5.540
18 1   39.660    8.024   -7.695
19 1   36.656   10.954   -8.400
20 1  -42.693    9.324   -6.746
21 1  -40.841    7.511   -9.465
22 1  -42.771    8.930  -13.526
23 1  -37.064    7.823   -9.723
24 1  -37.315    6.951  -13.707
25 1  -39.501   10.242  -14.420
26 1  -34.230    6.566  -15.335
27 1  -35.370    7.286  -19.149
28 1  -37.913   11.177  -18.086
29 1  -33.100    8.076  -22.501
30 1  -30.944   10.326  -20.655
31 1  -34.415   12.299  -19.005
32 1  -40.975   21.199  -19.423
33 1  -39.136   17.972  -16.340
34 1   41.219   20.953  -19.663
35 1   41.428   17.999  -21.516
36 1  -41.582   15.993  -18.463
37 1   38.474   16.204  -22.667
38 1   40.193   12.768  -22.906
39 1   42.176   12.033  -18.600
40 1   37.846   10.175  -24.112
41 1   40.178    7.170  -22.193
42 1   39.522    9.159  -18.611
43 1   38.849    3.910  -22.598
44 1   41.453    1.968  -20.394
45 1   42.151    4.777  -16.810
46 1   40.777   -1.052  -19.587
47 1  -41.722   -0.978  -17.503
48 1   42.416    1.558  -14.693
49 1  -40.702   -3.910  -16.254
50 1  -39.199   -2.331  -12.955
51 1   42.570   -0.791  -11.302
52 1  -37.089   -4.233  -10.829
53 1  -37.177   -1.430   -8.021
54 1  -41.169   -0.925   -7.837
55 1  -35.228    1.158   -8.189
56 1  -34.325    1.356   -4.276
57 1  -32.557   -2.814   -3.237
58 1  -32.176    3.797   -2.870
59 1  -30.419    1.099   -1.039
60 1  -29.517   -1.164   -4.237
61 1  -27.259    1.955    0.725
62 1  -25.094   -1.649   -0.209
63 1  -27.753   -4.534   -2.279
ITEM: TIMESTEP
1
ITEM: NUMBER OF ATOMS
63
ITEM: BOX BOUNDS pp pp pp
-14.876307487487793 70.6376953125
-12.419563293457031 73.09443664550781
-51.17568588256836 34.338314056396484
ITEM: ATOMS id type xu yu zu
1 1    9.000  -12.420  -15.992
2 1    6.377  -10.337  -18.671
3 1   12.097  -11.090  -15.402
4 1   10.863   -7.811  -17.283
5 1   13.075   -5.050  -18.110
6 1    9.754   -2.761  -17.786
7 1   11.516    0.518  -16.487
8 1    7.285   -4.363  -15.285
9 1    3.719   -2.595  -16.860
10 1   -0.426   -5.005  -15.431
11 1    3.225    0.931  -16.484
12 1   -0.848    0.911  -16.634
13 1   -0.878   -1.308  -13.232
14 1   -3.473    3.801  -17.208
15 1   -4.622    4.387  -13.532
16 1   -4.222    0.190  -11.209
17 1   -7.447    6.212  -13.013
18 1   -8.465    5.189   -9.587
19 1   -5.172    2.832   -8.876
20 1   -8.839    7.782   -7.025
21 1   -5.197    8.211   -6.621
22 1   -3.180    3.811   -5.220
23 1   -4.313   10.397   -4.548
24 1   -0.256   10.549   -5.596
25 1   -0.355    6.094   -5.648
26 1    2.334   11.949   -3.118
27 1    5.237   10.485   -5.307
28 1    4.097    5.707   -6.533
29 1    8.328   10.876   -4.942
30 1    9.350   10.035   -8.512
31 1    6.103    7.252   -9.508
32 1   -4.784   50.231  -48.676
33 1   -0.571   49.551  -51.176
34 1   -4.732   51.814  -45.790
35 1   -2.728   55.025  -47.425
36 1    0.123   52.307  -48.799
37 1   -1.302   57.724  -44.925
38 1   -1.668   60.641  -47.309
39 1   12.973   -6.724    0.617
40 1   11.555   -2.665    5.907
41 1   10.941   -1.844    2.155
42 1    9.395   -5.983    1.248
43 1    8.359    0.810    1.380
44 1    6.324   -0.882   -2.208
45 1    2.862    1.561   -3.472
46 1    5.666   -4.504   -2.523
47 1    1.361   -3.915   -2.046
48 1    0.931   -1.311   -5.463
49 1   -0.213   -6.803   -2.020
50 1   -3.526   -5.179   -2.225
51 1   -3.174   -2.078   -5.779
52 1   -6.233   -7.358   -2.724
53 1   -8.390   -4.550   -4.475
54 1   -5.581   -4.191   -7.539
55 1  -11.367   -5.389   -5.113
56 1  -11.717   -3.206   -8.673
57 1   -7.821   -3.786  -11.290
58 1  -14.876   -2.626  -10.474
59 1  -12.813   -2.599  -13.870
60 1  -10.515   -6.109  -12.712
61 1  -14.875   -2.936  -16.908
62 1  -11.450   -2.924  -19.461
63 1   -9.793   -7.488  -20.241
ITEM: TIMESTEP
2
ITEM: NUMBER OF ATOMS
63
ITEM: BOX BOUNDS pp pp pp
-11.937185287475586 73.57681274414062
-11.10474681854248 74.40925598144531
-32.02432632446289 53.48967361450195
ITEM: ATOMS id type xu yu zu
1 1   11.288    2.285   -3.889
2 1   12.716    2.856   -7.472
3 1   12.970    4.056   -1.810
4 1   10.536    6.571   -2.466
5 1    7.199    5.807   -3.151
6 1    7.533    5.884   -6.717
7 1    8.358   10.333   -7.428
8 1    4.884    4.489   -8.451
9 1    3.522    3.299   -5.158
10 1    1.019    7.197   -3.696
11 1    1.103    0.662   -4.730
12 1   -1.745    2.875   -7.225
13 1   -2.325    6.007   -4.665
14 1   -4.975    1.876   -8.461
15 1   -6.367    5.128   -8.411
16 1   -2.944    7.957   -8.750
17 1   -9.122    6.429   -9.989
18 1   -8.416   10.356   -9.624
19 1   -4.710   10.017  -11.237
20 1  -11.041   12.774  -10.983
21 1   -9.021   15.868  -11.276
22 1   -5.055   14.342  -11.695
23 1   -9.727   18.250  -13.613
24 1   -6.414   20.575  -13.396
25 1   -4.026   17.844  -12.293
26 1   -5.337   23.166  -15.502
27 1   -1.541   22.545  -14.676
28 1   -0.787   17.975  -15.203
29 1    1.360   24.684  -16.585
30 1    4.591   22.031  -17.135
31 1    1.664   19.133  -17.808
32 1   -3.670   14.683  -27.590
33 1   -4.252   14.694  -32.024
34 1   -0.545   12.604  -26.604
35 1    0.493   12.124  -30.255
36 1   -3.316   11.243  -31.164
37 1    2.697    9.835  -30.949
38 1    3.706    9.512  -27.265
39 1    0.126    7.054  -24.977
40 1    6.699    8.028  -26.635
41 1    5.897    7.324  -22.531
42 1    2.786    5.408  -23.023
43 1    8.355    5.137  -20.298
44 1    5.520    3.903  -17.634
45 1    2.494    2.291  -20.458
46 1    6.822    1.239  -14.815
47 1    5.755   -1.773  -16.686
48 1    2.210   -0.337  -17.651
49 1    5.528   -4.656  -15.453
50 1    1.312   -5.267  -16.208
51 1   -0.155   -2.182  -14.036
52 1    0.059   -8.931  -15.087
53 1    0.935   -8.292  -11.573
54 1   -1.780   -4.467  -11.660
55 1   -0.006  -10.815   -9.142
56 1   -3.570   -9.499   -8.184
57 1   -2.815   -4.952   -6.885
58 1   -5.297  -11.105   -5.828
59 1   -8.736   -9.177   -6.869
60 1   -6.383   -5.238   -6.833
61 1  -11.937   -9.134   -4.999
62 1  -11.094   -7.128   -2.130
63 1   -6.003   -5.408   -2.724
ITEM: TIMESTEP
3
ITEM: NUMBER OF ATOMS
63
ITEM: BOX BOUNDS pp pp pp
-19.357009887695312 66.15699005126953
-14.376087188720703 71.13790893554688
-36.914337158203125 48.59966278076172
ITEM: ATOMS id type xu yu zu
1 1   -1.115  -13.368    0.062
2 1    2.051  -14.376   -2.376
3 1    0.219  -12.153    3.246
4 1   -0.013   -8.681    2.258
5 1    1.120   -8.007   -1.216
6 1    2.896   -4.977   -0.306
7 1    2.616   -5.414    4.097
8 1    6.653   -4.053   -1.265
9 1    6.089   -0.348   -1.900
10 1    8.880    0.642   -5.675
11 1    3.177    1.200   -1.999
12 1    3.036    1.257   -5.742
13 1    6.975    3.730   -5.568
14 1    0.735    2.867   -7.470
15 1    3.085    6.341   -8.006
16 1    3.777    7.239  -12.851
17 1    2.416    9.067   -6.369
18 1    0.546   11.112   -9.669
19 1    3.994   10.701  -11.811
20 1   -0.381   14.692   -9.201
21 1   -4.236   14.521  -10.595
22 1   -3.818   11.788  -14.154
23 1   -5.672   17.885  -11.839
24 1   -9.340   16.357  -12.813
25 1   -7.761   12.949  -15.249
26 1  -11.891   18.467  -14.530
27 1  -14.730   16.287  -13.226
28 1  -15.048   17.651   -9.019
29 1  -17.794   16.658  -14.526
30 1  -19.357   13.841  -12.054
31 1  -16.146   14.033   -9.348
32 1    5.900   18.968  -36.914
33 1    2.041   18.082  -34.834
34 1    8.736   16.532  -35.784
35 1    6.929   15.717  -32.063
36 1    3.698   13.918  -33.612
37 1    7.029   18.423  -29.702
38 1    6.993   16.253  -26.109
39 1    8.256   11.433  -27.123
40 1    5.222   17.284  -22.907
41 1    2.461   14.252  -22.585
42 1    5.679   11.305  -22.457
43 1    0.403   14.043  -19.899
44 1    0.609   10.739  -19.924
45 1    5.109    9.647  -18.744
46 1   -0.546    9.246  -22.327
47 1   -0.778    5.582  -20.688
48 1    2.947    6.615  -18.587
49 1   -3.102    4.768  -18.522
50 1   -1.048    1.145  -17.218
51 1    3.589    2.792  -16.890
52 1   -1.656   -0.173  -14.182
53 1    1.965   -2.055  -13.903
54 1    4.297    1.443  -13.525
55 1    3.245   -4.310  -11.338
56 1    1.275   -7.534  -12.309
57 1    1.878  -10.736   -8.921
58 1   -2.068   -7.436  -13.038
59 1   -3.240   -6.773   -9.290
60 1    0.279   -7.761   -6.863
61 1   -6.543   -6.771   -8.609
62 1   -6.050   -3.390   -5.819
63 1   -7.448    0.837   -7.869
ITEM: TIMESTEP
4
ITEM: NUMBER OF ATOMS
63
ITEM: BOX BOUNDS pp pp pp
-41.094635009765625 44.41936492919922
-29.94791030883789 55.56608963012695
-48.60786437988281 36.90613555908203
ITEM: ATOMS id type xu yu zu
1 1   37.701   -9.847   -5.143
2 1   37.337   -9.543   -8.956
3 1   39.710  -12.349   -3.845
4 1   42.403   -9.480   -2.318
5 1   44.603   -7.314   -4.862
6 1   47.797   -6.916   -2.255
7 1   45.964   -4.983    0.950
8 1   50.842   -5.679   -2.925
9 1   52.847   -6.765    0.354
10 1   56.178   -9.232   -0.765
11 1   53.962   -4.181    2.316
12 1   57.252   -6.279    3.993
13 1   58.742   -7.009    0.439
14 1   59.249   -4.607    6.591
15 1   62.347   -7.221    5.886
16 1  -14.814  -24.545   27.461
17 1   61.976  -10.583    6.030
18 1  -15.156  -29.948   24.684
19 1  -41.095   23.109  -34.806
20 1  -40.801   18.760  -39.202
21 1  -37.154   19.863  -38.381
22 1  -37.315   21.266  -34.267
23 1  -34.056   17.468  -38.922
24 1  -32.027   19.087  -35.340
25 1  -35.254   18.441  -33.062
26 1  -28.904   17.448  -33.862
27 1  -29.322   18.998  -30.787
28 1  -33.601   17.359  -29.456
29 1  -26.863   18.439  -28.370
30 1  -29.065   18.878  -25.083
31 1  -31.652   16.168  -26.632
32 1   37.902   23.231  -48.608
33 1   35.809   18.831  -47.352
34 1   41.245   23.164  -47.086
35 1   40.906   26.476  -44.606
36 1  -36.269    8.735  -26.856
37 1   38.583   29.109  -45.262
38 1   40.551   31.279  -42.723
39 1  -36.958   13.411  -25.794
40 1   39.157   34.498  -40.904
41 1  -38.453   17.735  -21.794
42 1  -37.960   16.824  -25.721
43 1  -38.730   21.119  -20.879
44 1  -35.802   22.315  -23.313
45 1  -36.925   20.772  -27.753
46 1  -35.387   26.007  -23.582
47 1  -33.251   26.123  -27.226
48 1  -36.127   24.030  -29.189
49 1  -31.972   29.342  -28.867
50 1  -31.944   28.037  -32.807
51 1  -36.474   26.192  -33.092
52 1  -31.114   30.758  -35.778
53 1   -6.186  -22.428   24.418
54 1   -9.492  -22.331   27.226
55 1   -6.448  -21.083   21.350
56 1   -9.968  -22.154   21.131
57 1  -12.453  -20.087   24.743
58 1  -11.783  -22.126   18.495
59 1  -15.334  -20.682   20.515
60 1  -13.028  -17.441   22.509
61 1  -17.654  -19.134   18.298
62 1  -15.346  -15.956   17.606
63 1  -13.904  -13.378   21.771
