ITEM: TIMESTEP
0
ITEM: NUMBER OF ATOMS
64
ITEM: BOX BOUNDS pp pp pp
-42.672401428222656 42.84159851074219
-41.96979904174805 43.5442008972168
-28.738998413085938 56.775001525878906
ITEM: ATOMS id type xu yu zu
1 1  -35.809  -41.970   -8.141
2 1  -36.348  -40.936  -12.053
3 1  -34.534  -39.749   -6.457
4 1  -37.171  -36.561   -7.763
5 1  -39.182  -37.733  -11.748
6 1  -36.223  -32.814   -7.078
7 1  -40.177  -31.523   -7.347
8 1  -41.061  -34.572  -10.826
9 1  -41.472  -27.787   -7.290
10 1   40.431  -28.927   -5.743
11 1   38.091  -25.523   -5.410
12 1   38.680  -32.292   -6.892
13 1   35.271  -31.092   -6.136
14 1   34.793  -25.979   -7.047
15 1   32.332  -32.944   -7.284
16 1   30.201  -29.651   -7.151
17 1   32.416  -27.577   -9.085
18 1   26.697  -29.787   -8.081
19 1   26.705  -26.381   -9.978
20 1   30.715  -25.493  -12.361
21 1   24.062  -25.239  -11.400
22 1   26.103  -22.584  -13.813
23 1   30.266  -24.848  -15.752
24 1   24.305  -20.742  -16.398
25 1   27.427  -20.129  -19.290
26 1   28.849  -24.428  -19.399
27 1   26.786  -18.554  -22.882
28 1   30.133  -19.983  -24.552
29 1   29.928  -18.776  -28.440
30 1   33.698  -19.404  -22.858
31 1   35.669  -18.691  -25.761
32 1   32.464  -15.936  -27.263
33 1  -37.812  -31.034  -27.590
34 1  -38.500  -34.193  -23.826
35 1  -41.156  -29.371  -28.739
36 1  -42.672  -29.236  -25.541
37 1  -42.015  -33.396  -24.516
38 1   39.360  -27.601  -25.530
39 1   39.197  -27.069  -21.851
40 1   34.526  -26.605  -20.316
41 1   41.501  -24.529  -19.968
42 1   38.660  -21.996  -18.821
43 1   36.266  -24.800  -17.429
44 1   39.678  -19.591  -16.305
45 1   36.312  -18.519  -15.415
46 1   35.446  -22.667  -13.893
47 1   36.028  -16.081  -12.902
48 1   32.678  -17.304  -11.454
49 1   33.581  -22.209   -9.980
50 1   31.274  -15.459   -8.559
51 1   29.512  -18.844   -6.431
52 1   32.711  -20.879   -6.526
53 1   27.586  -18.902   -3.377
54 1   28.889  -22.892   -2.547
55 1   33.328  -22.054   -2.910
56 1   27.937  -24.313    0.439
57 1   25.227  -21.879    1.259
58 1   26.299  -21.764    5.367
59 1   25.310  -18.585   -0.090
60 1   22.657  -16.923    2.791
61 1   25.182  -18.184    5.870
62 1   21.173  -13.479    2.568
63 1   20.173  -13.200    6.486
64 1   23.480  -14.793    9.095
ITEM: TIMESTEP
1
ITEM: NUMBER OF ATOMS
64
ITEM: BOX BOUNDS pp pp pp
-7.593413352966309 77.92058563232422
-62.92900466918945 22.58499526977539
-61.44038391113281 24.07361602783203
ITEM: ATOMS id type xu yu zu
1 1    8.757  -12.313    6.228
2 1    8.740  -15.784    8.048
3 1    6.097  -10.229    7.712
4 1    6.291  -11.817   10.844
5 1   10.955  -13.737   10.868
6 1    5.303   -9.779   13.667
7 1    8.329  -11.196   15.828
8 1   11.036  -10.652   12.979
9 1    9.250  -62.929  -47.767
10 1   13.267  -10.578   19.236
11 1   14.021   -8.978   15.364
12 1   15.279  -62.447  -45.529
13 1   18.550  -61.700  -48.014
14 1   17.173   -7.174   15.213
15 1   21.159  -60.227  -46.951
16 1   21.797  -59.330  -50.739
17 1   19.156  -56.998  -51.678
18 1   25.538  -58.051  -51.328
19 1   24.978   -3.539   12.608
20 1   20.769  -53.274  -54.121
21 1   27.708   -1.646   10.352
22 1   27.822   -4.890    7.958
23 1   28.606   -7.492   11.286
24 1   30.186   -5.320    5.263
25 1   31.573   -8.711    7.045
26 1   27.887  -10.084    8.504
27 1   33.932  -10.942    5.789
28 1   32.471  -13.994    6.969
29 1   28.397  -15.034    4.236
30 1   34.661  -17.209    7.223
31 1   31.921  -19.434    5.733
32 1   31.218  -17.109    2.630
33 1   -4.532  -50.320  -51.037
34 1   -7.162  -54.578  -51.564
35 1   -1.794  -50.304  -53.813
36 1   -2.949  -47.294  -56.042
37 1   -7.593  -47.736  -55.383
38 1   -1.232  -46.440  -59.029
39 1    2.716  -47.600  -57.800
40 1    5.527  -46.797  -61.440
41 1    4.380  -46.326  -54.442
42 1    8.175  -47.788  -55.720
43 1    7.337  -44.684  -58.778
44 1   10.753  -47.820  -54.018
45 1   13.372  -48.753  -56.801
46 1   15.875  -50.751  -54.365
47 1   12.535    1.881    8.207
48 1   16.019   -0.209    7.596
49 1   16.482   -2.273   11.848
50 1   15.990   -2.991    5.529
51 1   18.977   -4.869    6.615
52 1   16.899   -5.525   10.290
53 1   19.964   -8.139    4.857
54 1   21.062   -9.654    8.470
55 1   17.230   -9.180    9.668
56 1   22.712  -12.706    9.173
57 1   21.307  -12.879   13.064
58 1   16.808  -12.469   12.553
59 1   22.151  -15.892   15.300
60 1   18.048  -16.175   17.062
61 1   15.848  -16.116   13.042
62 1   17.319  -18.867   19.290
63 1   14.409  -20.593   16.927
64 1   16.403  -20.513   12.966
ITEM: TIMESTEP
2
ITEM: NUMBER OF ATOMS
64
ITEM: BOX BOUNDS pp pp pp
-22.225299835205078 63.288700103759766
-44.630126953125 40.883872985839844
-43.355384826660156 42.15861511230469
ITEM: ATOMS id type xu yu zu
1 1  -12.581  -34.378    2.331
2 1   -9.475  -32.092    3.791
3 1  -16.019  -32.936    2.394
4 1  -15.584  -29.578    4.558
5 1  -15.833  -25.943    1.534
6 1  -18.117  -29.166    6.964
7 1  -17.980  -25.041    7.205
8 1  -19.116  -25.117    3.403
9 1  -19.923  -23.875    9.362
10 1  -19.388  -20.093    7.734
11 1  -19.190  -20.854    3.489
12 1   52.330  -44.630  -23.781
13 1  -21.274  -15.500    5.107
14 1  -17.231  -17.651    3.138
15 1   53.118  -39.461  -27.618
16 1  -17.497  -11.659    3.550
17 1  -17.156  -14.921    0.390
18 1  -15.997   -8.225    2.727
19 1  -16.115   -8.820   -0.859
20 1  -14.395  -12.536   -2.188
21 1  -14.874   -6.184   -3.017
22 1  -17.196   -7.515   -6.509
23 1  -21.886   -8.026   -4.757
24 1  -16.816   -5.092   -9.238
25 1  -18.379   -2.217   -7.040
26 1  -21.419   -4.374   -5.450
27 1  -19.033    0.837   -7.837
28 1  -22.225    0.520   -9.546
29 1   49.873  -28.980  -38.385
30 1   50.795  -23.831  -43.355
31 1   46.470  -25.004  -42.957
32 1   47.548  -29.004  -41.451
33 1   43.368  -35.469  -37.814
34 1   46.887  -34.730  -34.884
35 1   41.511  -31.955  -38.649
36 1   41.679  -31.041  -35.142
37 1   45.898  -31.183  -34.853
38 1   40.305  -28.373  -33.969
39 1   39.913  -29.588  -30.183
40 1   43.937  -30.341  -28.764
41 1   37.851  -27.801  -27.744
42 1   39.085  -29.878  -24.161
43 1   42.355  -30.918  -25.510
44 1   38.770  -28.516  -20.755
45 1   40.397  -31.116  -18.889
46 1   43.329  -31.754  -21.507
47 1   41.575  -30.625  -15.843
48 1   44.524  -33.994  -16.059
49 1   46.969  -33.316  -20.190
50 1   43.424  -37.754  -16.216
51 1   46.724  -38.840  -15.608
52 1   48.362  -36.440  -18.664
53 1   47.655  -42.539  -15.760
54 1   51.667  -42.263  -16.647
55 1   51.669  -38.148  -18.154
56 1   54.002  -43.081  -14.279
57 1   56.603  -42.821  -16.532
58 1   55.914  -38.304  -18.246
59 1  -14.887  -15.806   16.821
60 1  -13.825  -11.977   17.501
61 1  -14.619  -10.841   13.253
62 1  -10.514  -11.022   18.400
63 1  -11.952   -7.943   20.659
64 1   61.851  -37.232   -7.617
ITEM: TIMESTEP
3
ITEM: NUMBER OF ATOMS
64
ITEM: BOX BOUNDS pp pp pp
-34.891937255859375 50.62206268310547
-50.467323303222656 35.04667663574219
-46.9908332824707 38.52316665649414
ITEM: ATOMS id type xu yu zu
1 1    1.148  -20.112    3.995
2 1   -0.662  -18.173    0.824
3 1    5.084  -20.073    4.057
4 1    5.329  -19.811    0.532
5 1    3.797  -15.444    0.283
6 1    8.473  -19.915   -1.140
7 1    9.925  -16.838    0.075
8 1    7.110  -14.488   -0.897
9 1   13.629  -16.023   -1.160
10 1   14.798  -19.909   -0.372
11 1   16.666  -21.039   -4.823
12 1   17.089  -20.503    2.036
13 1   18.720  -24.064    0.099
14 1   20.138  -22.423   -4.133
15 1   21.855  -25.986    1.355
16 1   23.282  -26.505   -2.104
17 1   23.571  -22.657   -3.284
18 1   26.783  -28.220   -2.411
19 1   27.344  -26.741   -5.858
20 1   27.088  -22.244   -5.617
21 1   30.683  -27.180   -7.487
22 1   30.293  -24.055   -9.727
23 1   30.412  -20.923   -6.633
24 1   32.468  -23.352  -12.021
25 1   32.155  -19.249  -11.448
26 1   33.784  -19.610   -7.117
27 1   33.457  -16.633  -13.749
28 1   30.309  -15.975  -14.812
29 1   31.422  -12.141  -17.412
30 1   28.295  -18.513  -17.172
31 1   26.508  -15.803  -19.373
32 1   27.522  -17.119  -23.261
33 1  -33.421  -45.656  -39.927
34 1  -33.561  -50.467  -39.422
35 1  -29.973  -44.322  -40.914
36 1  -31.029  -41.992  -43.887
37 1  -31.833  -45.868  -46.249
38 1  -34.221  -40.114  -43.360
39 1  -34.892  -39.444  -46.991
40 1   32.216  -16.420   -2.560
41 1   28.215  -10.457   -1.353
42 1   28.459  -11.868   -5.291
43 1   28.890  -16.019   -3.752
44 1   25.759  -11.316   -8.285
45 1   26.790  -14.355   -9.851
46 1   26.176  -16.703   -6.718
47 1   25.393  -15.857  -13.305
48 1   25.720  -19.563  -12.452
49 1   24.197  -20.211   -8.117
50 1   24.397  -21.851  -14.497
51 1   24.085  -24.597  -11.795
52 1   21.659  -22.462   -9.601
53 1   22.349  -27.809  -12.735
54 1   21.138  -28.666   -8.870
55 1   18.731  -24.780   -8.730
56 1   19.228  -31.935   -7.964
57 1   19.690  -33.588  -11.914
58 1   24.311  -35.312  -11.661
59 1   17.126  -36.037  -13.181
60 1   18.852  -36.775  -16.105
61 1   22.296  -37.746  -13.459
62 1   17.760  -39.079  -18.569
63 1   19.680  -42.297  -17.541
64 1   23.197  -41.670  -14.506
ITEM: TIMESTEP
4
ITEM: NUMBER OF ATOMS
64
ITEM: BOX BOUNDS pp pp pp
-30.11052703857422 55.403472900390625
-51.71137237548828 33.80262756347656
-75.69276428222656 9.821235656738281
ITEM: ATOMS id type xu yu zu
1 1  -26.275   16.310   23.759
2 1  -24.456   18.934   20.930
3 1  -28.802   17.383   26.295
4 1   15.152  -51.711   12.250
5 1   16.319  -50.166    7.589
6 1   17.466  -51.279   14.607
7 1   16.810  -47.211   14.619
8 1   12.767  -47.667   16.433
9 1   18.820  -45.466   16.252
10 1   16.637  -42.304   17.251
11 1   12.319  -43.880   19.455
12 1   18.357  -39.987   19.371
13 1   15.246  -39.055   21.617
14 1   13.242  -43.289   23.274
15 1   15.404  -36.588   23.998
16 1   17.353  -39.284   26.589
17 1   14.359  -41.768   26.610
18 1   18.186  -38.704   29.640
19 1   20.860  -41.549   29.733
20 1   21.773  -42.401   25.552
21 1   23.560  -42.176   32.071
22 1   49.212  -11.054  -39.565
23 1   45.116  -13.795  -40.311
24 1  -18.491  -43.216  -75.693
25 1   47.826   -9.559  -35.266
26 1   45.438  -12.805  -36.531
27 1  -20.956  -40.997  -70.838
28 1   44.838   -9.653  -30.950
29 1   45.498  -13.045  -28.500
30 1   42.538  -10.145  -33.495
31 1   39.519  -11.753  -31.067
32 1   41.752  -13.413  -28.117
33 1  -21.412  -28.704  -62.624
34 1  -22.421  -25.325  -64.930
35 1  -24.043  -29.997  -60.591
36 1  -26.759  -30.769  -63.449
37 1  -26.453  -26.460  -65.002
38 1  -30.111  -31.439  -62.464
39 1   37.993   -1.348  -26.945
40 1   36.784   -5.874  -25.846
41 1   35.711    0.007  -28.854
42 1   36.991   -1.673  -32.219
43 1   36.527   -5.925  -30.943
44 1   35.750   -1.106  -35.869
45 1   35.142   -4.748  -36.626
46 1   32.909   -5.931  -33.160
47 1   37.748   -7.087  -38.375
48 1   35.024   -9.137  -40.540
49 1   33.102   -5.756  -43.105
50 1   36.091  -11.551  -42.711
51 1   33.296  -11.133  -45.348
52 1   34.715   -7.452  -46.728
53 1   33.911  -13.719  -48.039
54 1    4.199  -42.694   24.063
55 1    7.356  -40.052   24.556
56 1    3.659  -44.273   20.464
57 1    2.416  -40.257   19.149
58 1    6.079  -37.678   20.697
59 1    1.946  -39.380   15.656
60 1    2.259  -35.200   16.056
61 1    6.444  -35.329   17.885
62 1    1.926  -33.228   13.175
63 1    4.925  -31.321   13.455
64 1    6.762  -31.125    9.333
