ITEM: TIMESTEP
0
ITEM: NUMBER OF ATOMS
63
ITEM: BOX BOUNDS pp pp pp
16.035400390625 101.54940032958984
-4.9138407707214355 80.60015869140625
8.156709671020508 93.67070770263672
ITEM: ATOMS id type xu yu zu
1 1   40.878   -0.255   26.378
2 1   40.577    1.692   29.894
3 1   38.714   -3.134   26.056
4 1   36.987   -2.838   29.252
5 1   36.248    1.832   30.840
6 1   34.232   -4.914   30.389
7 1   32.887   -2.681   33.055
8 1   32.857    0.497   30.774
9 1   29.813   -3.626   34.133
10 1   28.611    0.039   34.033
11 1   25.089    0.902   35.271
12 1   24.690    4.240   32.881
13 1   26.594    3.496   28.387
14 1   21.941    6.556   33.182
15 1   21.638    8.030   29.525
16 1   25.217    6.886   28.162
17 1   20.212   10.946   28.926
18 1   18.768    9.490   25.625
19 1   20.873   11.957   21.847
20 1   17.674    6.016   24.896
21 1   17.375    7.142   21.770
22 1   21.703    8.656   20.490
23 1   16.035    5.300   18.786
24 1   18.110    7.274   15.694
25 1   21.593    6.462   17.648
26 1   17.472    6.777   12.353
27 1   20.527    4.296   11.791
28 1   18.989    0.324   11.881
29 1   22.971    4.952    9.235
30 1   23.364    1.437    8.157
31 1   23.620    0.264   12.115
32 1   30.708    2.822   16.420
33 1   33.590    3.438   12.987
34 1   29.306    5.494   17.115
35 1   32.570    7.351   18.778
36 1   34.988    4.549   16.878
37 1   33.083   10.584   18.361
38 1   30.678   10.527   15.821
39 1   27.085    8.965   17.705
40 1   29.800   13.628   13.725
41 1   26.059   12.450   12.815
42 1   25.173   12.175   17.132
43 1   23.553   14.657   11.212
44 1   20.560   12.965   12.974
45 1   21.420   13.837   16.628
46 1   17.369   13.580   12.118
47 1   17.503   17.025   13.910
48 1   16.668   16.476   18.771
49 1   20.392   18.882   13.077
50 1   19.904   21.010   15.935
51 1   23.450   21.960   16.283
52 1   17.391   24.138   15.391
53 1   19.299   26.813   18.136
54 1   18.085   30.138   15.733
55 1   18.446   26.632   21.350
56 1   19.465   30.290   22.056
57 1   20.366   30.818   26.670
58 1   21.893   31.739   20.040
59 1   22.914   34.092   22.638
60 1   24.082   30.928   25.584
61 1   25.347   36.797   21.900
62 1   27.862   33.967   21.408
63 1   29.051   33.024   25.653
ITEM: TIMESTEP
1
ITEM: NUMBER OF ATOMS
63
ITEM: BOX BOUNDS pp pp pp
7.910438060760498 93.4244384765625
-22.827499389648438 62.686500549316406
-28.416688919067383 57.097312927246094
ITEM: ATOMS id type xu yu zu
1 1   46.878   44.134   -8.260
2 1   50.303   45.585   -6.194
3 1   45.056   46.627  -10.338
4 1   43.656   44.083  -13.514
5 1   31.267   -7.371   52.793
6 1   37.956   -9.131   50.176
7 1   34.847   -9.991   47.675
8 1   32.635   -6.649   49.346
9 1   35.387   -9.993   44.494
10 1   31.483   -8.680   43.305
11 1   30.666   -8.163   39.793
12 1   31.232  -11.794   39.076
13 1   27.771  -13.846   41.299
14 1   31.023  -12.732   35.724
15 1   29.314  -15.662   36.189
16 1   26.285  -14.041   38.014
17 1   28.216  -17.525   33.274
18 1   24.591  -19.015   35.293
19 1   21.994  -15.664   37.263
20 1   22.568  -21.784   34.098
21 1   19.741  -21.108   36.864
22 1   18.882  -16.858   36.132
23 1   16.989  -22.827   36.642
24 1   14.247  -20.377   39.204
25 1   15.641  -16.840   37.886
26 1   18.229   31.829  -27.998
27 1   16.788   34.542  -25.381
28 1   19.359   34.705  -21.769
29 1   13.130   35.162  -24.481
30 1   12.968   32.215  -22.025
31 1   16.507   33.398  -19.920
32 1    8.445    1.043   34.642
33 1   12.486    2.541   33.497
34 1    7.910   -2.134   32.320
35 1   11.163   -4.103   33.921
36 1   14.081   -0.662   33.855
37 1   11.965   -7.031   33.260
38 1   14.500   -7.771   36.610
39 1   18.642   -9.367   35.054
40 1   13.552   -9.525   39.503
41 1   15.995   -8.459   41.297
42 1   18.589  -10.163   38.646
43 1   16.010   -9.539   44.981
44 1   16.498  -13.557   43.900
45 1   19.343  -13.310   41.210
46 1   24.915   36.665  -20.435
47 1   26.903   34.509  -22.914
48 1   22.763  -15.546   41.877
49 1   28.316   31.266  -21.621
50 1   31.459   31.011  -24.614
51 1   24.790  -18.176   43.074
52 1   34.246   28.236  -24.671
53 1   32.335   25.620  -27.577
54 1   33.801   22.713  -25.776
55 1   28.366   25.762  -27.657
56 1   28.331   22.191  -28.417
57 1   36.872   88.637   22.698
58 1   30.155   87.601   22.606
59 1   33.160   85.624   20.745
60 1   27.036   36.813   86.592
61 1   32.237   83.342   17.948
62 1   30.393   86.063   15.430
63 1   23.454   37.244   83.990
ITEM: TIMESTEP
2
ITEM: NUMBER OF ATOMS
63
ITEM: BOX BOUNDS pp pp pp
10.321966171264648 95.83596801757812
-10.534202575683594 74.97979736328125
8.128643989562988 93.64264678955078
ITEM: ATOMS id type xu yu zu
1 1   26.364   -9.869   33.585
2 1   25.151   -5.798   35.112
3 1   29.828  -10.534   33.218
4 1   30.911   -6.461   33.103
5 1   27.871   -4.520   30.458
6 1   33.982   -5.419   32.954
7 1   33.409   -1.939   32.650
8 1   30.801   -2.730   29.453
9 1   36.284    0.701   32.136
10 1   34.267    3.513   32.529
11 1   35.278    6.643   32.075
12 1   31.959    7.844   30.800
13 1   30.738    4.642   28.020
14 1   31.512   11.132   29.181
15 1   27.922   11.296   28.697
16 1   28.399   12.852   25.071
17 1   26.156    7.957   28.864
18 1   23.473    9.367   26.433
19 1   26.047   10.703   22.335
20 1   20.701    7.043   25.454
21 1   19.956    8.955   22.161
22 1   24.042    8.695   19.867
23 1   16.989    8.445   20.165
24 1   18.891    9.826   16.761
25 1   22.314    6.896   17.218
26 1   17.619   10.075   13.462
27 1   21.030    9.928   11.422
28 1   23.395    6.110   12.963
29 1   21.227   10.270    8.129
30 1   24.735    8.596    8.311
31 1   22.554    4.946    9.571
32 1   29.791   -3.430   13.903
33 1   25.906   -0.606   13.347
34 1   32.940   -1.203   15.167
35 1   32.203    2.317   12.918
36 1   28.182    2.574   13.849
37 1   34.063    4.827   13.405
38 1   31.530    7.324   11.769
39 1   27.818    6.585   15.036
40 1   32.304   10.935   11.681
41 1   28.245   11.807   11.940
42 1   28.247   10.118   16.073
43 1   26.741   14.768   11.445
44 1   24.413   14.894   14.706
45 1   26.823   13.650   17.599
46 1   22.592   17.531   15.238
47 1   21.294   16.227   18.731
48 1   24.966   14.910   21.121
49 1   18.898   17.832   20.542
50 1   20.817   21.439   20.363
51 1   19.443   22.545   16.880
52 1   20.083   23.510   23.145
53 1   21.353   26.676   21.208
54 1   19.116   26.242   17.707
55 1   21.721   29.986   22.998
56 1   21.104   32.071   20.309
57 1   17.532   30.139   18.190
58 1   21.390   35.389   20.605
59 1   17.202   36.391   20.533
60 1   16.690   33.633   17.464
61 1   15.030   35.915   23.572
62 1   11.760   34.912   21.395
63 1   10.322   30.696   23.635
ITEM: TIMESTEP
3
ITEM: NUMBER OF ATOMS
63
ITEM: BOX BOUNDS pp pp pp
10.682586669921875 96.19658660888672
-16.73313331604004 68.78086853027344
-8.199148178100586 77.31484985351562
ITEM: ATOMS id type xu yu zu
1 1   32.815   -2.837   26.572
2 1   34.948    0.205   24.862
3 1   31.613   -2.095   29.876
4 1   32.180    1.707   29.518
5 1   37.242    2.569   29.489
6 1   30.942    3.822   31.941
7 1   31.950    7.112   30.609
8 1   35.449    5.859   29.375
9 1   31.734   10.058   32.631
10 1   30.002   11.830   30.187
11 1   29.579   15.030   30.021
12 1   26.147   14.542   29.556
13 1   24.982   16.546   24.944
14 1   24.746   10.882   29.845
15 1   22.012   11.349   27.447
16 1   24.340   13.009   24.327
17 1   19.843    9.070   26.761
18 1   18.797   10.200   22.896
19 1   22.914   10.842   20.822
20 1   16.575    8.285   21.060
21 1   18.653    8.880   17.402
22 1   23.340    8.348   18.436
23 1   17.757    7.214   14.028
24 1   20.706    8.080   12.201
25 1   23.130    6.414   15.055
26 1   21.156    6.618    8.598
27 1   17.199    6.162    7.248
28 1   14.711    4.404   11.269
29 1   16.341    4.578    4.347
30 1   12.851    6.549    4.137
31 1   10.683    2.917    3.680
32 1   33.794   11.039   26.313
33 1   29.621   10.922   24.130
34 1   35.985    8.742   24.264
35 1   33.833    7.677   21.577
36 1   30.712    7.507   24.356
37 1   34.363    4.492   19.503
38 1   33.385    6.024   16.318
39 1   28.908    6.061   16.832
40 1   34.659    9.246   15.575
41 1   31.128   10.535   14.055
42 1   28.968    9.680   17.667
43 1   30.781   14.509   13.299
44 1   26.844   14.621   13.325
45 1   26.511   13.010   17.299
46 1   25.156   17.602   13.066
47 1   21.978   16.867   15.240
48 1   23.737   15.929   19.348
49 1   18.907   19.227   15.653
50 1   18.120   18.028   19.571
51 1   21.574   18.332   21.009
52 1   15.332   20.139   21.456
53 1   15.777   18.110   24.854
54 1   19.819   18.077   24.351
55 1   14.521   19.782   27.630
56 1   16.071   23.418   26.854
57 1   14.430   25.089   22.976
58 1   19.179   24.671   27.363
59 1   18.204   28.354   27.988
60 1   17.397   27.740   31.950
61 1   15.309   29.679   26.176
62 1   15.176   33.241   27.692
63 1   68.810  -16.733   -8.199
ITEM: TIMESTEP
4
ITEM: NUMBER OF ATOMS
63
ITEM: BOX BOUNDS pp pp pp
1.1314680576324463 86.64546966552734
-48.888553619384766 36.62544631958008
-27.316944122314453 58.19705581665039
ITEM: ATOMS id type xu yu zu
1 1   48.363  -10.062   70.671
2 1   45.877   -8.949   73.595
3 1   50.117   -7.670   68.951
4 1   50.956   -5.221   72.409
5 1   54.036   -7.994   74.907
6 1   52.403   -2.256   71.825
7 1   55.477   -2.548   74.222
8 1   56.406   -6.473   72.445
9 1   57.868    0.092   74.104
10 1   60.058   -2.150   75.703
11 1   69.443  -48.889    5.615
12 1    2.651   42.066   39.958
13 1    7.065   42.337   39.700
14 1    1.131   39.820   42.449
15 1    4.723   37.572   42.535
16 1   13.788   -7.203  -27.317
17 1    5.036   34.796   44.738
18 1    9.336   34.875   44.865
19 1   17.266   -8.522  -24.915
20 1   10.731   32.479   46.830
21 1   14.563   34.077   46.718
22 1   19.833   -9.026  -22.449
23 1   17.655   32.844   48.936
24 1   25.666  -11.597  -21.782
25 1   22.425   -9.665  -19.807
26 1   28.574  -11.983  -20.263
27 1   27.427  -13.829  -17.641
28 1   24.437  -10.700  -16.239
29 1   26.249  -17.222  -18.317
30 1   25.389  -17.327  -14.519
31 1   23.300  -13.814  -14.884
32 1   17.496    9.423  -13.811
33 1   16.229    9.335  -18.601
34 1   19.038    6.651  -12.821
35 1   17.044    3.972  -15.140
36 1   17.851    6.091  -18.918
37 1   17.689    0.504  -15.087
38 1   20.924    0.218  -17.214
39 1   20.356   -4.498  -18.267
40 1   21.558    2.547  -20.374
41 1   23.557   -0.169  -22.512
42 1   20.343   -3.137  -21.639
43 1   24.452    0.697  -26.005
44 1   24.874   -2.734  -27.060
45 1   20.804   -3.877  -25.612
46 1   18.961   44.463   40.241
47 1   17.398   41.225   40.891
48 1   12.512   41.825   41.818
49 1   17.894   38.858   38.795
50 1   14.512   37.387   40.002
51 1   12.188   40.344   38.576
52 1   13.368   33.804   38.724
53 1   16.781   32.333   37.768
54 1   16.050   28.391   38.033
55 1   18.374   33.371   35.339
56 1   20.814   30.707   35.163
57 1   22.221   29.694   39.570
58 1   23.691   31.416   33.021
59 1   26.123   28.339   34.369
60 1   23.364   26.940   37.470
61 1   29.344   28.924   35.531
62 1   30.562   25.451   34.821
63 1   29.700   23.413   38.518
