ITEM: TIMESTEP
0
ITEM: NUMBER OF ATOMS
63
ITEM: BOX BOUNDS pp pp pp
-10.711799621582031 74.80220031738281
-22.59320068359375 62.920799255371094
-35.76060104370117 49.75339889526367
ITEM: ATOMS id type xu yu zu
1 1  -10.544  -21.517   -5.082
2 1  -10.712  -22.593   -0.759
3 1   -9.656  -18.210   -5.698
4 1   -6.371  -17.684   -3.340
5 1   -4.542  -14.480   -2.998
6 1   -0.813  -15.629   -4.158
7 1   -2.268  -16.548   -8.079
8 1    2.057  -13.544   -4.287
9 1    3.461  -14.573   -7.511
10 1    2.163  -18.984   -8.541
11 1    6.687  -13.453   -8.547
12 1    5.443  -13.779  -12.333
13 1    8.700  -12.817  -15.435
14 1    3.799  -17.107  -13.389
15 1    5.058  -17.121  -17.201
16 1    9.123  -16.296  -16.506
17 1    4.446  -19.337  -19.377
18 1    7.343  -18.102  -22.059
19 1   11.513  -17.422  -19.755
20 1    7.874  -19.895  -24.899
21 1   11.250  -17.933  -25.436
22 1   13.731  -19.180  -21.909
23 1   12.639  -18.858  -28.366
24 1   12.554  -15.795  -30.434
25 1   15.118  -13.750  -27.679
26 1   13.857  -15.527  -33.843
27 1   17.794  -14.543  -32.459
28 1   17.898  -11.126  -29.477
29 1   20.753  -14.945  -34.143
30 1   20.374  -11.733  -35.761
31 1   20.441   -9.639  -31.923
32 1   25.146    2.406  -20.794
33 1   25.038    7.187  -22.128
34 1   22.034    1.067  -20.108
35 1   20.685    4.393  -19.238
36 1   21.725    5.788  -22.975
37 1   17.313    4.462  -18.480
38 1   15.764    2.355  -20.841
39 1   17.767   -2.103  -20.099
40 1   12.063    2.343  -20.842
41 1   11.652   -1.588  -21.093
42 1   14.535   -2.352  -18.453
43 1    8.586   -3.019  -20.856
44 1   10.180   -6.428  -19.191
45 1   11.855   -4.391  -16.158
46 1    8.068   -9.189  -17.949
47 1    4.945   -7.496  -19.340
48 1    1.690   -6.919  -16.145
49 1    3.266   -7.594  -22.801
50 1    0.757   -4.182  -22.346
51 1   -0.750   -5.660  -18.575
52 1    2.014   -0.886  -21.937
53 1   -1.794    0.649  -20.798
54 1   -2.707   -2.172  -17.642
55 1   -1.988    4.050  -19.798
56 1   -0.204    3.882  -16.505
57 1    0.813   -0.885  -15.512
58 1    2.841    6.189  -15.685
59 1    4.614    3.886  -13.448
60 1    4.507    0.223  -16.038
61 1    8.102    4.871  -11.898
62 1   10.172    1.935  -13.032
63 1    8.250    1.368  -17.642
ITEM: TIMESTEP
1
ITEM: NUMBER OF ATOMS
63
ITEM: BOX BOUNDS pp pp pp
-18.074167251586914 67.43983459472656
-28.606788635253906 56.90721130371094
-32.752262115478516 52.76173782348633
ITEM: ATOMS id type xu yu zu
1 1   89.880   10.062    2.207
2 1   85.909    8.153    2.797
3 1   15.356   42.248   16.110
4 1  -18.074  -21.608  -21.556
5 1  -17.862  -18.520  -23.906
6 1  -14.369  -17.415  -22.563
7 1  -12.932  -20.964  -22.596
8 1  -14.413  -15.067  -19.428
9 1  -11.468  -16.859  -17.725
10 1   -8.452  -17.435  -21.277
11 1   -9.780  -14.912  -14.960
12 1   -6.445  -17.170  -15.558
13 1   -5.044  -15.651  -20.406
14 1   -3.898  -17.307  -13.529
15 1   -1.804  -19.282  -16.309
16 1   -1.255  -16.627  -18.966
17 1    1.627  -21.504  -15.334
18 1    2.990  -21.360  -19.223
19 1    2.692  -17.055  -20.492
20 1    5.977  -23.024  -20.183
21 1    6.773  -20.211  -23.104
22 1    5.738  -15.587  -20.714
23 1   10.077  -20.040  -24.167
24 1    9.689  -16.575  -26.137
25 1    8.176  -14.182  -23.300
26 1   12.753  -15.169  -27.768
27 1   11.324  -11.420  -27.630
28 1   10.163  -10.428  -23.335
29 1   13.123   -8.679  -29.666
30 1   13.945   -6.010  -26.374
31 1   17.653   -4.509  -28.158
32 1   43.956   34.258    4.219
33 1    7.840  -28.607  -32.585
34 1   40.941   32.763    4.701
35 1   40.893   34.918    8.278
36 1    4.082  -28.350  -32.752
37 1   38.038   34.398   10.770
38 1   35.798   37.512    8.798
39 1    2.610  -25.938  -29.074
40 1   32.402   38.205   10.019
41 1   -3.272  -25.406  -28.397
42 1    0.190  -25.838  -26.085
43 1   -5.907  -22.764  -27.126
44 1   -3.562  -19.620  -28.320
45 1   -4.459  -16.302  -25.871
46 1    0.041  -19.877  -29.034
47 1    0.508  -16.135  -28.699
48 1   -0.628  -15.456  -24.397
49 1    3.852  -14.108  -29.068
50 1    2.439  -10.837  -27.466
51 1    1.712  -12.463  -23.440
52 1    4.904   -8.136  -27.500
53 1    3.214   -6.247  -24.194
54 1    4.263   -9.402  -21.046
55 1    3.843   -2.561  -23.246
56 1    3.715   -3.485  -19.721
57 1    7.969   -5.222  -19.328
58 1    3.009   -1.329  -17.285
59 1    6.566   -1.058  -15.589
60 1    8.206   -1.568  -18.828
61 1    7.635   -3.511  -13.319
62 1    5.801   -2.051  -10.058
63 1    1.459   -1.606  -10.836
ITEM: TIMESTEP
2
ITEM: NUMBER OF ATOMS
63
ITEM: BOX BOUNDS pp pp pp
-8.494711875915527 77.019287109375
-24.678133010864258 60.83586883544922
-31.72751235961914 53.7864875793457
ITEM: ATOMS id type xu yu zu
1 1   -3.622   -7.965  -12.527
2 1   -6.155   -5.519  -14.257
3 1   -2.875   -8.094   -8.812
4 1   -0.966  -11.309   -9.053
5 1    0.275  -13.003   -5.713
6 1    4.025  -13.939   -7.211
7 1    2.648  -17.372   -8.889
8 1    6.353  -14.881   -4.682
9 1    8.059  -17.858   -7.370
10 1    6.170  -17.247  -11.482
11 1   11.446  -18.649   -7.632
12 1   11.140  -19.455  -11.263
13 1    9.724  -15.702  -13.237
14 1   14.678  -20.406  -12.908
15 1   14.050  -19.208  -17.075
16 1   10.213  -17.052  -16.506
17 1   16.236  -17.051  -18.733
18 1   13.558  -15.538  -20.992
19 1   10.333  -13.008  -18.579
20 1   14.551  -13.718  -23.642
21 1   11.496  -11.301  -23.452
22 1   11.885   -9.877  -18.994
23 1   11.377   -8.683  -25.912
24 1    8.770   -6.347  -23.964
25 1    8.327   -9.086  -20.959
26 1   10.008   -3.452  -22.701
27 1   11.386   -1.811  -26.306
28 1   15.622   -0.516  -25.501
29 1    9.755    0.161  -28.415
30 1   12.367   -0.554  -31.728
31 1   15.244   -2.066  -28.987
32 1   71.084   12.016  -23.277
33 1   -1.718  -24.678  -26.177
34 1   68.893   13.702  -21.212
35 1   70.920   12.839  -17.676
36 1   -3.182  -22.156  -23.736
37 1   69.797   13.451  -14.110
38 1   -4.964  -19.766  -17.789
39 1   -0.320  -21.863  -18.829
40 1   -4.521  -18.214  -14.161
41 1   -1.007  -16.562  -15.172
42 1    1.024  -20.354  -15.671
43 1    0.516  -14.223  -13.063
44 1    2.111  -11.497  -15.916
45 1    5.894  -12.105  -15.373
46 1    1.060   -8.082  -15.900
47 1   -2.489   -9.104  -17.920
48 1   -1.045  -12.020  -21.797
49 1   -4.197   -6.718  -19.133
50 1   -3.409   -7.440  -23.303
51 1   -4.343  -11.068  -23.025
52 1   -0.006   -7.044  -24.604
53 1   -0.214   -2.881  -24.399
54 1   -3.912   -2.886  -23.416
55 1    2.027   -0.756  -22.100
56 1   -0.414    1.717  -21.623
57 1   -3.131   -0.577  -18.599
58 1    0.620    4.383  -20.476
59 1   -3.180    5.679  -19.367
60 1   -2.945    2.626  -16.363
61 1   -3.674    8.686  -17.938
62 1   -6.752    9.563  -19.297
63 1   -8.495    5.913  -20.826
ITEM: TIMESTEP
3
ITEM: NUMBER OF ATOMS
63
ITEM: BOX BOUNDS pp pp pp
-8.50532341003418 77.00867462158203
-23.57903480529785 61.934967041015625
-30.512989044189453 55.00101089477539
ITEM: ATOMS id type xu yu zu
1 1    2.069  -15.658   -2.214
2 1   -2.450  -14.836   -1.215
3 1    2.412  -18.480   -4.660
4 1   -1.807  -18.953   -4.712
5 1   -3.021  -21.058   -6.793
6 1   -3.109  -17.806   -8.961
7 1    1.358  -17.141   -8.502
8 1   -4.885  -18.043  -12.039
9 1   -3.305  -14.589  -13.053
10 1    1.323  -14.789  -11.994
11 1   -3.925  -13.479  -16.365
12 1   -0.186  -11.935  -16.951
13 1    3.143  -15.294  -15.687
14 1    0.596  -10.508  -19.845
15 1    4.287  -11.375  -19.681
16 1    4.120  -15.386  -19.296
17 1    6.492   -9.988  -22.076
18 1    9.480  -13.390  -21.792
19 1    7.881  -17.066  -18.810
20 1   13.082  -12.499  -20.838
21 1   14.827  -15.644  -22.683
22 1   11.007  -17.058  -25.393
23 1   17.710  -14.661  -24.643
24 1   17.813  -17.708  -27.193
25 1   13.826  -17.421  -27.844
26 1   19.949  -17.728  -30.066
27 1   22.857  -19.893  -28.022
28 1   27.184  -19.099  -30.513
29 1   22.542  -22.992  -27.639
30 1   26.211  -23.579  -26.009
31 1   28.176  -23.510  -29.984
32 1   24.022   -2.047  -28.696
33 1   24.804    1.926  -26.542
34 1   22.042   -3.966  -26.342
35 1   19.672   -0.804  -25.323
36 1   22.934    0.523  -23.241
37 1   17.009   -1.386  -23.665
38 1   15.462    1.547  -25.136
39 1   14.433   -0.077  -29.008
40 1   12.541    3.379  -23.920
41 1   11.898    5.238  -27.287
42 1   10.975    1.535  -29.367
43 1    8.986    7.975  -27.449
44 1    6.504    5.106  -25.034
45 1    7.761    1.049  -26.838
46 1    3.643    5.574  -24.047
47 1    4.070    2.723  -21.623
48 1    5.903   -1.295  -24.005
49 1    1.114    1.810  -19.682
50 1    3.336    1.535  -16.100
51 1    6.414   -1.284  -17.546
52 1    1.897    0.353  -13.024
53 1    4.548   -2.329  -12.436
54 1    3.590   -3.801  -16.163
55 1    4.545   -4.507   -9.884
56 1    2.290   -1.958   -7.489
57 1    3.312   -3.126   -3.628
58 1   -1.390   -1.115   -7.831
59 1   -2.322   -2.580   -4.778
60 1    1.155   -5.781   -4.953
61 1   -5.647   -3.452   -4.043
62 1   -6.542   -0.361   -2.695
63 1   -8.505    1.231   -6.483
ITEM: TIMESTEP
4
ITEM: NUMBER OF ATOMS
63
ITEM: BOX BOUNDS pp pp pp
-17.294506072998047 68.21949768066406
-24.19091033935547 61.323089599609375
-71.20787048339844 14.306129455566406
ITEM: ATOMS id type xu yu zu
1 1   -8.762  -21.808   -4.935
2 1  -12.017  -24.191   -4.246
3 1   -7.454  -21.913   -7.762
4 1   -6.473  -18.206   -7.307
5 1   -4.843  -16.709   -9.851
6 1   -2.505  -14.574   -7.390
7 1    0.324  -17.667   -7.170
8 1   -0.765  -11.651   -7.956
9 1    1.253  -11.726   -4.866
10 1    3.904  -15.943   -5.772
11 1    3.043   -8.983   -4.208
12 1    6.038  -10.749   -1.968
13 1    7.828  -14.136   -4.378
14 1    8.193   -9.257   -0.085
15 1    5.829   -9.100    2.398
16 1    6.089   -5.038    3.869
17 1    2.095   -9.843    1.990
18 1    0.716   -6.872    3.842
19 1   -1.424   -8.470    7.497
20 1    2.928   -4.374    4.961
21 1    0.245   -2.572    6.466
22 1   -0.833   -5.524   10.053
23 1    0.563    0.285    7.731
24 1   41.375   -7.116  -63.170
25 1   38.206   -9.954  -64.616
26 1   40.199   -4.153  -61.037
27 1   38.043   -6.403  -58.708
28 1   36.006  -10.136  -61.133
29 1   39.380   -7.461  -55.263
30 1   39.586  -11.007  -56.070
31 1   36.183  -11.303  -57.832
32 1    1.716  -16.531    2.809
33 1   -0.987  -14.028    0.447
34 1   -0.012  -17.966    5.162
35 1   -1.466  -14.599    7.053
36 1   -2.391  -12.473    3.580
37 1   37.512  -21.839  -64.560
38 1   35.970  -18.044  -64.709
39 1   -6.378  -11.170    4.869
40 1   32.991  -17.237  -63.029
41 1   33.004  -13.731  -64.394
42 1   -7.667   -7.747    5.569
43 1   29.942  -11.632  -64.283
44 1   30.933   -9.177  -66.949
45 1   31.335  -11.863  -70.455
46 1   28.590   -5.999  -67.760
47 1   29.136   -6.447  -71.208
48 1  -14.251   -4.316    2.095
49 1  -13.940    2.910    0.663
50 1  -14.288    0.339   -2.299
51 1  -17.295   -1.816   -1.297
52 1  -11.394   -1.739   -2.557
53 1   -8.634    1.413   -3.475
54 1   -5.160   -1.004   -2.897
55 1   -8.603    3.164   -6.316
56 1   -4.788    4.984   -5.492
57 1   -2.139    1.862   -3.705
58 1   -2.935    6.830   -8.341
59 1    0.536    6.763   -6.769
60 1    0.596    2.984   -6.100
61 1    3.475    8.122   -8.170
62 1    4.149    5.137  -11.236
63 1    5.597    1.473   -9.055
