ITEM: TIMESTEP
0
ITEM: NUMBER OF ATOMS
63
ITEM: BOX BOUNDS pp pp pp
4.59306001663208 90.10706329345703
-12.343599319458008 73.17040252685547
-27.228200912475586 58.285797119140625
ITEM: ATOMS id type xu yu zu
1 1   35.381   -2.467  -24.109
2 1   37.412   -2.891  -27.228
3 1   34.960   -5.075  -22.141
4 1   32.311   -2.548  -19.747
5 1   28.422   -1.655  -22.800
6 1   31.068   -3.237  -16.680
7 1   28.766    0.162  -16.194
8 1   26.747   -0.446  -19.780
9 1   26.611    0.620  -13.093
10 1   24.208    2.753  -14.502
11 1   22.826   -0.130  -18.267
12 1   21.385    3.828  -13.030
13 1   19.802    5.025  -16.774
14 1   21.937    2.812  -20.557
15 1   19.059    8.755  -17.525
16 1   15.321    8.358  -17.745
17 1   13.176   11.189  -18.048
18 1   10.432    9.799  -15.951
19 1   12.342    7.388  -12.493
20 1    7.688   11.695  -14.680
21 1    7.282    9.791  -11.328
22 1   11.362    8.819   -9.446
23 1    4.869   11.013   -8.737
24 1    6.396    9.232   -6.046
25 1   10.011   10.989   -6.938
26 1    5.038    9.831   -2.611
27 1    8.205    8.440   -0.811
28 1   11.396   11.290   -2.839
29 1    7.804    8.628    2.859
30 1   12.038    9.164    3.593
31 1   12.252   11.621    0.915
32 1   20.512   17.417   -2.702
33 1   16.381   14.744   -1.881
34 1   22.348   15.225   -5.130
35 1   20.782   11.602   -3.445
36 1   17.185   12.305   -4.480
37 1   22.221    8.840   -4.386
38 1   18.924    6.866   -2.930
39 1   15.480    8.714   -5.697
40 1   18.924    3.117   -2.494
41 1   14.769    2.878   -3.496
42 1   15.264    5.455   -6.962
43 1   12.543   -0.035   -3.730
44 1   10.332    1.365   -6.154
45 1   12.646    2.921   -8.854
46 1    7.486   -0.067   -7.276
47 1    7.413    2.467  -10.458
48 1   11.723    2.444  -12.960
49 1    4.593    2.435  -12.743
50 1    5.929   -0.733  -15.353
51 1    9.883    0.868  -15.644
52 1    4.891   -1.529  -18.793
53 1    8.398   -0.635  -20.237
54 1    9.099    3.342  -19.011
55 1    8.914   -1.462  -23.498
56 1    9.526   -4.977  -23.107
57 1   11.635   -5.961  -26.805
58 1   11.864   -5.714  -20.173
59 1   13.301   -9.276  -21.892
60 1   14.664   -7.135  -25.335
61 1   15.961  -11.258  -19.854
62 1   12.756  -12.344  -17.283
63 1   12.253   -8.901  -14.828
ITEM: TIMESTEP
1
ITEM: NUMBER OF ATOMS
63
ITEM: BOX BOUNDS pp pp pp
-10.782126426696777 74.73187255859375
-23.65398406982422 61.860015869140625
-49.04995346069336 36.464046478271484
ITEM: ATOMS id type xu yu zu
1 1   23.255    1.621  -24.638
2 1   26.784    0.026  -24.003
3 1   23.378    3.569  -28.118
4 1   25.327    0.807  -29.918
5 1   22.217   -2.810  -29.455
6 1   26.687    1.285  -32.691
7 1   27.477   -2.342  -32.693
8 1   23.111   -3.769  -32.931
9 1   29.676   -4.313  -34.435
10 1   28.282   -7.331  -33.415
11 1   24.307   -7.338  -35.178
12 1   30.176   -9.716  -33.894
13 1   27.576  -12.080  -34.818
14 1   25.075  -10.025  -37.772
15 1   28.141  -15.888  -35.308
16 1   25.097  -16.672  -37.782
17 1   25.254  -19.560  -40.102
18 1   22.727  -17.820  -42.793
19 1   24.865  -13.046  -43.740
20 1    0.493   15.788   28.921
21 1    0.185   18.432   26.381
22 1    3.745   21.497   27.517
23 1   -0.334   17.676   22.663
24 1    1.655   20.893   21.268
25 1    5.073   21.074   24.174
26 1    2.338   21.574   17.965
27 1    5.189   24.473   18.365
28 1    7.866   22.302   21.227
29 1    6.735   25.425   14.864
30 1   10.167   25.875   16.330
31 1    9.940   22.596   18.370
32 1   17.981   19.497   23.087
33 1   13.950   20.103   21.775
34 1   17.936   20.887   26.365
35 1   15.630   23.652   25.278
36 1   12.417   21.400   24.904
37 1   15.100   26.350   27.211
38 1   12.571   27.997   25.185
39 1    9.569   24.781   25.448
40 1   11.211   31.088   26.687
41 1    7.647   30.261   25.186
42 1    7.491   26.717   27.764
43 1   26.871   -3.057  -49.050
44 1   23.888   -5.746  -48.576
45 1   25.112   -7.875  -45.779
46 1   20.348   -4.275  -47.945
47 1   18.737   -7.378  -46.621
48 1   21.665   -9.621  -44.039
49 1   15.684   -7.116  -44.490
50 1   17.236  -10.557  -42.331
51 1   20.415   -9.079  -40.651
52 1   15.073  -11.817  -40.213
53 1   17.662  -13.467  -38.004
54 1   18.900   -9.585  -37.189
55 1   19.802  -16.086  -39.562
56 1   17.087  -18.299  -41.007
57 1   13.363  -16.278  -39.323
58 1   17.157  -21.753  -40.855
59 1   -6.961   13.739   31.364
60 1   12.166  -19.351  -40.995
61 1   -8.509   10.211   30.420
62 1  -10.782   11.841   27.200
63 1    6.224  -23.654  -45.925
ITEM: TIMESTEP
2
ITEM: NUMBER OF ATOMS
63
ITEM: BOX BOUNDS pp pp pp
-30.458724975585938 55.055274963378906
-18.681997299194336 66.83200073242188
-39.244808197021484 46.26919174194336
ITEM: ATOMS id type xu yu zu
1 1   41.786    2.855   -8.696
2 1   42.714    2.029   -4.321
3 1   38.673    3.643   -9.142
4 1   38.983    6.716  -11.870
5 1   36.028   10.441  -10.064
6 1   42.478    8.440  -12.385
7 1   42.562    9.868   -8.860
8 1   39.401   12.279  -10.614
9 1   44.888   11.925   -7.952
10 1   46.353    9.645   -5.078
11 1   49.333   12.589   -2.481
12 1   43.909    7.524   -3.138
13 1   46.694    7.633   -0.152
14 1   47.933   12.279    1.032
15 1   46.565    5.467    2.879
16 1   48.247    8.090    5.030
17 1  -24.388  -18.682  -28.117
18 1  -24.056  -14.497  -27.656
19 1  -26.590  -12.219  -30.569
20 1  -24.464  -13.130  -24.134
21 1  -25.779   -9.766  -25.444
22 1   43.397   15.251    8.442
23 1  -26.728   -7.118  -23.153
24 1  -28.839   -5.054  -25.791
25 1   41.408   17.996   10.250
26 1  -30.459   -1.823  -24.591
27 1   38.392   24.391   10.115
28 1   37.439   19.662   10.472
29 1   35.618   26.456   11.194
30 1   32.938   24.090    9.406
31 1   34.061   20.830   11.596
32 1   30.625   11.044   10.477
33 1   33.092   15.155   11.193
34 1   31.360    9.878    7.550
35 1   31.947   13.165    5.636
36 1   35.269   14.180    8.613
37 1   33.112   12.805    2.028
38 1   34.895   16.230    2.442
39 1   37.701   16.008    5.650
40 1   35.916   17.672   -0.178
41 1   38.597   19.813    1.324
42 1   40.249   16.296    3.124
43 1   41.121   22.039   -1.031
44 1   43.879   21.963    1.953
45 1   43.983   17.633    2.618
46 1  -25.858   -2.974  -35.384
47 1  -23.749   -4.187  -32.675
48 1  -24.357   -8.938  -32.962
49 1  -20.206   -3.418  -32.994
50 1  -18.656   -7.059  -32.768
51 1  -21.318   -9.123  -35.183
52 1  -15.435   -7.041  -33.702
53 1  -15.289  -10.713  -34.683
54 1  -18.598  -10.633  -37.293
55 1  -12.605  -11.827  -35.961
56 1  -13.821  -15.875  -37.365
57 1  -15.686  -17.939  -34.020
58 1  -11.593  -17.901  -39.245
59 1   -8.567  -17.204  -36.553
60 1  -12.085  -17.525  -33.426
61 1   -7.162  -13.502  -37.321
62 1   -4.114  -13.748  -34.758
63 1   -6.043  -16.349  -31.633
ITEM: TIMESTEP
3
ITEM: NUMBER OF ATOMS
63
ITEM: BOX BOUNDS pp pp pp
-6.2014617919921875 79.31253814697266
-54.318965911865234 31.19503402709961
-33.78451919555664 51.7294807434082
ITEM: ATOMS id type xu yu zu
1 1   28.994    8.608  -31.625
2 1   27.658   11.290  -33.785
3 1   30.237    9.833  -28.978
4 1   26.652    9.392  -26.855
5 1   25.457   13.456  -25.288
6 1   26.323    6.849  -24.732
7 1   28.417    8.383  -22.443
8 1   25.825   11.851  -22.054
9 1   28.925    6.533  -19.389
10 1   29.015    9.255  -17.097
11 1   25.312   11.327  -17.764
12 1   29.502    9.040  -13.797
13 1   27.048   11.843  -12.927
14 1   22.648   11.352  -14.915
15 1   26.755   12.492   -9.168
16 1   22.994   14.225   -9.940
17 1   20.542   15.570   -7.319
18 1   17.545   15.565   -9.307
19 1   16.813   10.956  -10.859
20 1   14.608   16.589   -7.529
21 1   12.098   14.144   -9.831
22 1   13.907    9.673   -9.260
23 1    8.916   14.296   -8.930
24 1    8.301   10.541  -10.551
25 1   10.565    8.731   -8.017
26 1    4.538    9.569  -10.401
27 1    5.470    5.485  -10.403
28 1    8.038    4.835   -6.871
29 1    3.094    3.331  -11.012
30 1    4.722    0.441   -9.263
31 1    5.291    2.454   -5.762
32 1   13.769    1.875    1.227
33 1    9.755    2.960   -1.872
34 1   16.000   -0.323   -0.662
35 1   13.560   -1.386   -3.254
36 1   12.755    2.258   -4.283
37 1   14.972   -3.064   -5.712
38 1   13.093   -1.016   -9.028
39 1   13.220    3.329   -8.288
40 1   14.068   -2.011  -12.292
41 1   12.918    1.398  -14.394
42 1   14.926    4.289  -11.459
43 1   13.434    1.718  -17.790
44 1   12.758    5.578  -17.891
45 1   15.533    6.699  -14.574
46 1   13.450    7.261  -20.484
47 1   13.315   10.848  -18.557
48 1   16.766   10.833  -15.399
49 1   13.574   14.290  -20.473
50 1   15.656   15.759  -17.875
51 1   18.558   12.901  -18.104
52 1   16.791   19.104  -17.804
53 1   20.546   19.052  -16.176
54 1   21.232   15.604  -18.339
55 1   22.755   21.982  -16.293
56 1   20.789   24.534  -13.560
57 1    6.000  -54.295   -2.117
58 1   17.146   25.004  -13.873
59 1    0.265  -54.319    0.702
60 1    2.749  -52.515   -1.583
61 1   -3.063  -53.218    0.885
62 1   -2.193  -49.675    1.619
63 1   -6.201  -47.623    3.455
ITEM: TIMESTEP
4
ITEM: NUMBER OF ATOMS
63
ITEM: BOX BOUNDS pp pp pp
2.421666383743286 87.9356689453125
-62.35976791381836 23.154232025146484
-36.68129348754883 48.832706451416016
ITEM: ATOMS id type xu yu zu
1 1   18.354    9.472  -32.805
2 1   18.559    8.478  -36.681
3 1   16.049    8.146  -30.896
4 1   18.559    4.866  -29.485
5 1   20.221    3.409  -33.775
6 1   17.146    2.299  -27.349
7 1   19.831    2.498  -24.959
8 1   19.031    6.716  -23.893
9 1   20.806    0.048  -22.028
10 1   23.035    2.795  -19.901
11 1   20.347    6.325  -19.847
12 1   24.585    1.963  -16.397
13 1   24.580    5.846  -15.159
14 1   20.163    7.435  -16.158
15 1   25.413    6.438  -11.811
16 1   23.486    9.590  -11.293
17 1   23.443   11.644   -8.574
18 1   20.029   13.235   -9.105
19 1   16.814   10.005   -9.340
20 1   18.617   16.136   -7.655
21 1   15.239   15.652   -9.285
22 1   14.165   11.590   -7.570
23 1   12.422   18.278   -8.761
24 1    9.643   16.283   -7.818
25 1   11.732   13.653   -5.544
26 1    6.178   17.412   -6.768
27 1    5.102   13.994   -4.451
28 1    9.327   12.779   -2.092
29 1    2.422   13.954   -2.662
30 1    3.946   12.157    0.754
31 1    8.035   14.709    0.812
32 1   15.822    9.187    5.671
33 1   12.385   10.754    3.197
34 1   17.275    6.068    4.065
35 1   13.539    5.308    2.383
36 1   13.701    9.191    0.134
37 1   12.793    2.791    0.350
38 1    9.661    4.581   -1.331
39 1   11.432    8.228   -3.453
40 1    8.021    2.540   -3.904
41 1    7.186    5.787   -6.757
42 1   11.108    6.636   -6.892
43 1    5.863    5.511   -9.915
44 1    7.846    8.752  -11.408
45 1   11.695    7.552  -10.906
46 1    7.324   10.273  -14.713
47 1   10.533   12.699  -14.195
48 1   14.166    9.707  -14.479
49 1   11.164   15.551  -16.287
50 1   15.546   15.392  -15.831
51 1   16.085   11.257  -17.035
52 1   17.670   18.045  -17.898
53 1   20.908   15.665  -17.958
54 1   18.569   12.264  -19.431
55 1   24.073   16.670  -19.707
56 1   23.352   20.817  -19.669
57 1   22.474   22.240  -14.958
58 1   19.138  -62.360  -19.175
59 1   18.225  -59.595  -16.490
60 1   19.354  -62.011  -13.401
61 1   19.507  -55.958  -16.365
62 1   19.095  -55.925  -12.217
63 1   22.320  -59.692  -11.246
ITEM: TIMESTEP
5
ITEM: NUMBER OF ATOMS
63
ITEM: BOX BOUNDS pp pp pp
1.8321382999420166 87.34613800048828
-43.92771911621094 41.586280822753906
-30.72296905517578 54.79103088378906
ITEM: ATOMS id type xu yu zu
1 1   32.359   -1.770  -30.003
2 1   33.813   -0.974  -26.466
3 1   29.029    0.114  -30.723
4 1   27.241   -1.257  -27.981
5 1   30.096    0.255  -24.745
6 1   23.892   -0.050  -27.038
7 1   24.121   -1.127  -23.078
8 1   27.500    1.622  -22.770
9 1   21.257   -0.804  -20.610
10 1   23.576   -0.281  -17.526
11 1   27.075    3.079  -18.591
12 1   22.084    0.469  -14.011
13 1   25.123    1.483  -12.028
14 1   27.615    4.112  -14.913
15 1   24.569    3.311   -9.489
16 1   21.253    3.939  -10.305
17 1   18.187    1.806   -9.314
18 1   15.897    3.201  -11.793
19 1   12.019    4.630   -9.289
20 1   17.409    5.775  -14.085
21 1   13.928    7.870  -14.280
22 1   12.789    8.147   -9.794
23 1   13.605   11.090  -15.895
24 1   11.003   12.499  -13.802
25 1   13.425   11.751  -10.407
26 1   10.051   15.729  -14.219
27 1    9.916   17.201  -10.349
28 1   13.613   15.322   -8.165
29 1   19.168  -43.928   45.430
30 1   12.009   21.098   -6.308
31 1   15.157   18.624   -7.365
32 1   20.876   12.898   -1.229
33 1   18.288   14.683   -4.581
34 1   18.974   11.020    0.852
35 1   15.151   12.184    0.022
36 1   15.836   11.992   -4.020
37 1   12.322    9.966    1.407
38 1    9.929   11.094   -0.594
39 1   11.602   10.625   -4.898
40 1    6.819   10.108   -0.305
41 1    5.736   10.731   -3.796
42 1    9.116    7.870   -5.152
43 1    2.569   10.021   -5.282
44 1    4.174    9.470   -8.882
45 1    6.934    6.313   -8.323
46 1    1.832    8.740  -11.384
47 1    4.544    6.510  -13.905
48 1    6.932    2.884  -11.032
49 1    3.667    5.185  -17.230
50 1    6.809    2.680  -17.221
51 1    5.540    0.572  -13.398
52 1    7.578    0.875  -19.900
53 1   10.653   -0.925  -18.644
54 1   13.276    1.875  -18.234
55 1   11.700   -3.542  -20.845
56 1   13.699   -5.525  -18.259
57 1   10.492   -9.050  -16.549
58 1   17.077   -6.746  -19.345
59 1   17.180   -9.421  -16.476
60 1   13.287  -11.308  -17.631
61 1   19.834  -11.248  -16.926
62 1   19.042  -12.749  -20.133
63 1   14.858  -14.988  -18.517
ITEM: TIMESTEP
6
ITEM: NUMBER OF ATOMS
63
ITEM: BOX BOUNDS pp pp pp
2.656341791152954 88.17034149169922
-34.95326232910156 50.56073760986328
-40.97388458251953 44.54011535644531
ITEM: ATOMS id type xu yu zu
1 1   68.423  -34.259   -6.973
2 1    8.058    9.504  -40.974
3 1   65.582  -32.757   -5.281
4 1   66.634  -33.583   -1.254
5 1    6.384    8.489  -37.323
6 1   64.767  -34.953    1.009
7 1    3.372    9.511  -31.790
8 1    6.070    8.290  -33.637
9 1    2.676    7.887  -28.339
10 1    4.129   10.830  -25.714
11 1    2.656   15.333  -27.569
12 1    3.573   10.264  -21.959
13 1    3.791   13.624  -21.105
14 1   65.098  -27.904   11.539
15 1    2.921   14.938  -18.101
16 1    5.031   12.570  -15.607
17 1    8.266   11.399  -16.796
18 1    8.441    8.250  -14.156
19 1   12.958    8.213  -11.956
20 1    5.797    7.595  -11.689
21 1    7.658    5.648   -9.593
22 1   11.130    7.870   -8.824
23 1    6.075    4.214   -6.968
24 1    9.016    4.159   -4.822
25 1    9.586    7.957   -5.530
26 1    9.054    3.200   -1.494
27 1   12.385    4.808   -0.767
28 1   11.495    9.156   -2.087
29 1   13.836    4.726    2.652
30 1   15.924    8.311    2.368
31 1   11.988   10.499    1.409
32 1   10.932   20.439   -1.751
33 1   10.494   15.934   -0.349
34 1   14.015   21.020   -3.832
35 1   15.900   17.663   -2.653
36 1   12.415   15.251   -3.466
37 1   18.488   16.710   -3.802
38 1   18.164   13.433   -2.976
39 1   14.199   11.802   -5.000
40 1   20.878   11.229   -3.769
41 1   19.242    8.053   -3.615
42 1   16.563    9.263   -6.772
43 1   20.974    4.973   -4.002
44 1   18.041    2.956   -5.760
45 1   17.098    5.743   -8.547
46 1   17.782   -0.810   -6.237
47 1   13.973   -0.512   -8.117
48 1   13.921    3.869  -10.515
49 1   13.471   -2.990  -11.072
50 1   11.320   -0.905  -13.382
51 1   13.522    2.118  -13.755
52 1   10.085   -1.842  -16.373
53 1    9.962    1.623  -17.817
54 1   14.367    1.885  -17.381
55 1    8.435    2.450  -21.234
56 1   11.215    0.971  -23.093
57 1   11.906   -3.305  -21.114
58 1   11.197    1.079  -26.565
59 1   13.207   -2.328  -26.937
60 1   10.692   -4.482  -24.375
61 1   13.332   -3.898  -30.138
62 1   14.701   -7.269  -28.815
63 1   11.837   -8.178  -25.771
ITEM: TIMESTEP
7
ITEM: NUMBER OF ATOMS
63
ITEM: BOX BOUNDS pp pp pp
2.4788296222686768 87.99282836914062
-8.40876579284668 77.10523223876953
-25.17270851135254 60.34129333496094
ITEM: ATOMS id type xu yu zu
1 1   36.930    6.511  -20.952
2 1   37.166    2.106  -20.671
3 1   33.586    8.111  -20.833
4 1   32.168    5.678  -22.727
5 1   33.018    2.010  -20.420
6 1   28.613    5.898  -23.848
7 1   27.136    2.200  -22.249
8 1   30.759    0.529  -22.914
9 1   24.267    0.567  -23.450
10 1   23.653   -1.703  -19.817
11 1   19.323   -0.664  -18.412
12 1   26.395   -1.369  -16.974
13 1   25.078   -3.785  -14.738
14 1   24.454   -8.409  -17.379
15 1   21.508   -3.212  -13.885
16 1   21.835   -3.858   -9.604
17 1   18.670   -3.724   -7.189
18 1   16.646   -1.287   -9.553
19 1   13.524    1.351   -6.622
20 1   18.190    0.805  -12.335
21 1   15.180    2.803  -12.598
22 1   15.048    4.280   -8.051
23 1   14.676    4.838  -15.047
24 1   12.236    7.371  -12.540
25 1   15.178    7.647   -9.720
26 1   10.872   10.353  -13.504
27 1   10.469   12.210  -10.025
28 1   15.014   11.500   -8.002
29 1    9.557   15.990  -10.245
30 1   11.196   16.624   -6.275
31 1   14.700   15.246   -7.608
32 1   23.097   12.018   -2.864
33 1   19.838   12.596   -5.625
34 1   22.365    9.994    0.095
35 1   18.672   10.981    0.369
36 1   18.311    9.482   -3.632
37 1   16.665    9.578    2.329
38 1   13.617   10.481    0.136
39 1   14.406    8.088   -3.713
40 1   10.109    9.452    1.445
41 1    8.860    8.729   -2.343
42 1   12.043    5.586   -2.786
43 1    4.986    7.722   -2.375
44 1    5.470    5.682   -5.661
45 1    8.750    3.580   -4.574
46 1    2.479    3.485   -6.826
47 1    5.034    0.018   -7.647
48 1    8.411    1.675  -10.440
49 1    3.529   -2.835   -8.591
50 1    6.261   -4.422  -10.655
51 1    6.933   -0.703  -12.803
52 1    5.873   -7.550  -12.712
53 1    5.292   -5.148  -16.076
54 1    8.559   -3.049  -15.336
55 1    4.571   -6.312  -19.752
56 1    5.444   -2.908  -21.547
57 1    8.921   -1.121  -19.369
58 1    5.832   -3.019  -25.173
59 1    8.832   -0.024  -25.014
60 1    7.862    1.736  -21.370
61 1   12.074   -1.515  -24.756
62 1   14.173    1.922  -23.562
63 1   10.795    4.917  -21.307
ITEM: TIMESTEP
8
ITEM: NUMBER OF ATOMS
63
ITEM: BOX BOUNDS pp pp pp
-59.03619384765625 26.477806091308594
-26.441665649414062 59.07233428955078
-58.69468307495117 26.819316864013672
ITEM: ATOMS id type xu yu zu
1 1   35.242   10.624    0.689
2 1   36.433    8.285   -2.494
3 1   36.529   13.486    0.773
4 1   39.640   12.416   -0.046
5 1   41.451   11.475    3.971
6 1   40.394   10.053   -2.174
7 1   44.249    9.178   -0.722
8 1   42.677    8.178    2.935
9 1   45.867    6.241   -2.142
10 1   48.192    6.080    0.319
11 1   45.960    5.679    4.179
12 1   50.709    3.771   -0.239
13 1   -5.389  -14.915  -58.484
14 1   46.353    1.991    4.943
15 1   -3.853  -18.178  -58.006
16 1   -5.459  -18.478  -54.230
17 1   -4.289  -21.357  -51.927
18 1   -2.453  -23.012  -54.721
19 1   -4.358  -22.214  -58.695
20 1   -1.276  -26.442  -54.754
21 1  -55.616   27.284  -21.468
22 1  -59.036   28.404  -24.357
23 1  -53.227   24.511  -22.831
24 1    1.414   41.479   35.419
25 1   -2.239   42.179   36.867
26 1    1.921   38.975   33.641
27 1    1.316   41.491   30.399
28 1    1.956   38.781   26.177
29 1    2.075   44.652   30.436
30 1   -0.376   45.420   27.402
31 1    1.360   42.395   25.559
32 1   32.974   -7.832   -0.834
33 1   34.140   -3.296   -1.807
34 1   35.525   -9.684    0.301
35 1   37.258   -9.648   -3.092
36 1   35.887   -5.789   -4.089
37 1   40.325  -10.533   -3.718
38 1   40.864   -8.077   -6.405
39 1   36.717   -6.569   -8.110
40 1   43.759   -5.520   -6.282
41 1   43.517   -5.009   -2.327
42 1   42.829   -0.661   -2.678
43 1   40.965   -6.857   -0.563
44 1   40.972   -4.818    2.955
45 1   42.251   -1.033    1.313
46 1   38.245   -5.074    5.135
47 1   39.808   -2.773    7.145
48 1   41.273    1.019    4.676
49 1   38.025   -1.620   10.444
50 1  -15.691  -16.638  -50.522
51 1   41.754    2.147    8.108
52 1  -16.807  -14.071  -48.238
53 1  -13.248  -11.551  -48.222
54 1  -13.453  -11.904  -52.065
55 1  -13.343   -8.210  -46.854
56 1  -10.949   -6.795  -48.981
57 1  -12.658   -8.042  -53.012
58 1   -9.907   -3.189  -48.953
59 1  -13.064   -1.661  -49.631
60 1  -14.364   -4.661  -51.942
61 1  -15.628    0.173  -47.108
62 1  -18.440    0.009  -49.737
63 1   39.403   15.469    8.353
ITEM: TIMESTEP
9
ITEM: NUMBER OF ATOMS
63
ITEM: BOX BOUNDS pp pp pp
-12.367359161376953 73.14663696289062
-11.117648124694824 74.39635467529297
-34.34109115600586 51.172908782958984
ITEM: ATOMS id type xu yu zu
1 1   57.331   -8.321  -34.341
2 1   53.725   -5.925  -33.078
3 1   60.523   -6.608  -34.148
4 1   61.407   -9.123  -30.937
5 1   65.469  -11.118  -32.327
6 1   61.409   -7.928  -27.115
7 1   64.783   -8.627  -25.981
8 1   66.842   -8.188  -30.295
9 1   65.869   -7.165  -22.891
10 1   69.691   -7.344  -23.965
11 1   69.985   -5.838  -28.433
12 1   71.875   -6.250  -21.693
13 1   73.853   -4.538  -24.229
14 1   -3.828   -1.755    2.169
15 1   72.226   -1.941  -26.282
16 1   -5.651    3.572    0.413
17 1   -5.985    5.242   -2.406
18 1   -2.861    3.135   -4.368
19 1   -0.620    6.111   -7.303
20 1   -0.430    1.253   -2.062
21 1    2.781    2.071   -3.573
22 1    2.154    6.804   -4.802
23 1    5.683    1.659   -1.569
24 1    7.601    4.719   -3.211
25 1    4.767    7.789   -2.307
26 1   11.229    5.460   -1.936
27 1   10.698    9.414   -3.441
28 1    6.888   11.375   -1.041
29 1   13.723   11.822   -3.068
30 1   11.394   15.172   -3.408
31 1    9.345   14.030    0.212
32 1    0.584   18.273    3.514
33 1    4.275   15.338    2.805
34 1   -1.672   18.754    0.522
35 1    0.902   18.535   -2.043
36 1    2.216   14.751   -0.197
37 1    0.215   18.804   -5.149
38 1    3.167   17.028   -6.382
39 1    2.877   13.360   -4.206
40 1    3.579   16.496  -10.111
41 1    6.234   13.616   -9.310
42 1    3.286   11.892   -7.768
43 1    8.263   11.922  -11.291
44 1    8.020    8.958   -8.920
45 1    3.987    8.335   -9.762
46 1    9.639    6.328   -9.482
47 1    6.236    4.052  -10.918
48 1    2.517    6.639  -13.379
49 1    6.358    0.763  -11.859
50 1    2.846    0.118  -10.929
51 1    0.584    3.524  -12.901
52 1    1.226   -2.849  -10.947
53 1   -1.963   -1.345  -12.115
54 1   -0.880    0.821  -15.422
55 1   -4.643   -3.644  -12.654
56 1   -6.676   -1.372  -15.453
57 1   -3.976    0.501  -18.446
58 1   -9.931   -2.572  -17.108
59 1   -9.630   -0.912  -20.099
60 1   -5.515   -2.655  -20.345
61 1  -12.367   -1.625  -22.854
62 1  -10.073   -1.328  -25.365
63 1   -6.457   -3.730  -24.331
ITEM: TIMESTEP
10
ITEM: NUMBER OF ATOMS
63
ITEM: BOX BOUNDS pp pp pp
-7.459174156188965 78.05482482910156
-31.66471290588379 53.84928894042969
-31.04659652709961 54.467403411865234
ITEM: ATOMS id type xu yu zu
1 1   -7.459    1.553   -4.675
2 1   -3.917    3.109   -6.459
3 1   65.626  -31.665  -20.007
4 1   67.628  -28.889  -20.014
5 1   -5.737    6.500   -7.975
6 1   67.142  -25.615  -19.009
7 1   70.154  -24.170  -21.632
8 1   68.814  -26.133  -24.655
9 1   70.078  -20.651  -21.888
10 1   -4.699   15.253   -9.003
11 1   -0.503   15.235   -9.034
12 1   -6.120   12.741  -11.648
13 1   -2.581   12.040  -13.677
14 1    0.483   11.546  -10.360
15 1   -2.428    9.007  -16.064
16 1    1.337    7.955  -14.699
17 1    4.230    7.956  -16.780
18 1    6.577    5.338  -14.771
19 1   10.148    7.442  -13.485
20 1    5.320    3.049  -12.090
21 1    8.562    3.348   -9.903
22 1   10.223    7.828   -9.923
23 1    8.355    1.800   -6.242
24 1   11.911    3.406   -5.253
25 1   10.834    7.625   -6.312
26 1   13.522    2.626   -2.332
27 1   15.505    5.793   -2.300
28 1   12.769    8.821   -2.436
29 1   17.754    6.428   -0.126
30 1   15.627    5.799    3.180
31 1   12.431    7.694    0.983
32 1    8.436   17.517    0.503
33 1    9.467   13.019   -0.912
34 1    8.875   19.920   -2.628
35 1   12.371   18.331   -3.425
36 1   10.564   14.311   -4.033
37 1   14.460   19.704   -6.235
38 1   16.232   16.430   -6.717
39 1   13.043   13.087   -7.153
40 1   18.675   16.098   -9.171
41 1   18.360   11.796   -9.500
42 1   14.432   11.804  -10.811
43 1   19.057    9.859   -6.741
44 1   18.158    6.389   -9.016
45 1   15.494    7.929  -11.916
46 1   20.786    4.505  -10.016
47 1   19.623    3.893  -13.629
48 1   22.252    7.565  -16.208
49 1   20.408    0.925  -14.966
50 1   16.698   -0.430  -14.599
51 1   15.454    2.643  -17.437
52 1   16.139   -3.840  -15.679
53 1   13.018   -2.947  -18.388
54 1   14.605    0.485  -20.346
55 1   12.198   -5.209  -20.539
56 1    9.842   -3.057  -22.361
57 1   10.992    0.984  -22.281
58 1    8.341   -4.251  -25.378
59 1   10.864   -2.599  -27.486
60 1   10.071    1.079  -25.799
61 1   10.517   -2.879  -30.911
62 1    8.070   -0.056  -31.047
63 1    6.013   -0.044  -26.903
ITEM: TIMESTEP
11
ITEM: NUMBER OF ATOMS
63
ITEM: BOX BOUNDS pp pp pp
4.986863136291504 90.50086212158203
-14.071211814880371 71.44278717041016
-24.786334991455078 60.727664947509766
ITEM: ATOMS id type xu yu zu
1 1   38.881   -3.931  -20.052
2 1   39.331   -7.847  -18.043
3 1   36.583   -3.461  -23.019
4 1   35.893    0.613  -22.008
5 1   34.649    0.694  -17.081
6 1   33.846    2.707  -23.960
7 1   30.482    1.908  -22.928
8 1   31.115    2.786  -18.970
9 1   27.315    3.132  -24.465
10 1   25.296    3.162  -20.515
11 1   22.452    0.029  -21.154
12 1   24.175    5.800  -19.406
13 1   20.807    5.277  -20.198
14 1   19.243    1.094  -19.460
15 1   18.699    7.589  -18.972
16 1   15.671    5.722  -19.570
17 1   12.486    7.378  -18.938
18 1   13.524    9.619  -16.048
19 1   14.319    7.126  -11.964
20 1   11.248   12.153  -15.077
21 1    9.556   10.043  -12.206
22 1   12.617    9.062   -9.491
23 1    6.278   11.117  -10.196
24 1    7.185    8.851   -7.519
25 1   10.813   11.024   -6.866
26 1    4.987    8.422   -4.507
27 1    7.799    7.467   -1.998
28 1   10.720   10.808   -2.590
29 1    6.837    6.934    0.767
30 1   10.301    7.109    2.321
31 1   10.528   11.401    1.016
32 1   18.351   18.120   -0.265
33 1   14.368   15.675   -0.208
34 1   21.165   16.242   -1.768
35 1   19.641   12.711   -0.300
36 1   15.991   13.597   -2.691
37 1   21.448    9.620   -0.758
38 1   18.572    7.183   -0.795
39 1   15.584    9.345   -3.934
40 1   18.925    3.297   -1.271
41 1   15.158    3.446   -1.915
42 1   15.842    5.847   -5.414
43 1   13.242    0.629   -2.522
44 1   10.493    2.558   -4.865
45 1   13.290    3.253   -7.864
46 1    7.642    0.340   -5.807
47 1    7.842    1.390   -9.406
48 1   12.025    0.765  -11.255
49 1    5.036    1.145  -11.934
50 1    7.361    1.947  -15.258
51 1   10.215    0.012  -14.203
52 1    6.248    2.181  -18.544
53 1    8.633    0.127  -20.207
54 1    9.220   -2.668  -16.897
55 1    7.904   -0.989  -23.277
56 1    9.475   -4.552  -22.552
57 1    8.210   -6.275  -18.802
58 1    9.520   -6.983  -24.786
59 1    9.544   -9.694  -21.830
60 1    5.802   -8.357  -20.464
61 1    9.895  -13.204  -22.181
62 1    8.841  -14.071  -18.317
63 1    5.992  -10.690  -16.935
ITEM: TIMESTEP
12
ITEM: NUMBER OF ATOMS
63
ITEM: BOX BOUNDS pp pp pp
-0.020555220544338226 85.49344635009766
-11.077739715576172 74.43626403808594
-27.700092315673828 57.813907623291016
ITEM: ATOMS id type xu yu zu
1 1   27.207   -7.635  -27.700
2 1   23.673   -8.978  -25.865
3 1   28.778   -4.098  -27.153
4 1   27.107   -3.687  -23.848
5 1   22.867   -5.192  -24.236
6 1   27.596   -0.429  -22.367
7 1   23.936    0.985  -22.601
8 1   22.381   -2.590  -21.159
9 1   23.078    4.048  -21.082
10 1   18.980    3.169  -20.414
11 1   19.699   -1.116  -18.196
12 1   17.636    5.355  -18.574
13 1   14.682    2.549  -17.853
14 1   16.716   -0.474  -15.598
15 1   11.847    3.428  -16.185
16 1   14.024    5.557  -13.786
17 1   12.289    7.071  -10.558
18 1   13.699   10.794  -10.444
19 1   11.523   12.589  -14.566
20 1   12.695   13.103   -7.762
21 1   13.066   16.435   -9.929
22 1    9.762   15.210  -12.775
23 1   12.120   19.598   -8.317
24 1    9.679   20.654  -10.743
25 1    7.806   17.222  -10.345
26 1    8.182   23.780  -10.343
27 1    4.625   21.969   -8.379
28 1    3.732   17.779  -11.082
29 1    1.912   23.713   -8.305
30 1   -0.021   20.752   -5.941
31 1    1.134   17.559   -8.620
32 1   13.096    9.205    8.983
33 1    9.729    7.820    5.898
34 1   16.336    7.913    8.472
35 1   16.079    8.602    4.274
36 1   12.558    5.908    3.962
37 1   18.766    7.897    2.140
38 1   16.647    5.476   -0.232
39 1   15.675    2.040    2.406
40 1   17.931    4.028   -3.812
41 1   20.593    2.643   -2.410
42 1   18.723    1.082    0.821
43 1   22.811    0.774   -4.471
44 1   20.546   -2.171   -4.979
45 1   19.388   -2.692   -1.085
46 1   22.220   -4.870   -6.240
47 1   18.990   -6.505   -8.028
48 1   16.876   -3.090  -10.712
49 1   19.284  -10.020   -9.669
50 1   16.353   -9.134  -12.053
51 1   17.848   -5.253  -13.372
52 1   15.218  -11.078  -14.331
53 1   13.772   -8.343  -16.816
54 1   17.873   -6.495  -17.331
55 1   12.035   -9.191  -19.429
56 1   13.002   -5.778  -21.399
57 1   17.413   -5.549  -21.456
58 1   11.240   -4.992  -24.075
59 1   13.833   -2.514  -24.808
60 1   17.056   -5.250  -24.978
61 1   13.317   -1.080  -27.643
62 1   12.204    2.266  -25.836
63 1   15.282    4.962  -27.389
ITEM: TIMESTEP
13
ITEM: NUMBER OF ATOMS
63
ITEM: BOX BOUNDS pp pp pp
-10.321269989013672 75.19273376464844
-7.4285888671875 78.08541107177734
-39.500179290771484 46.01382064819336
ITEM: ATOMS id type xu yu zu
1 1   40.211   -5.727  -11.501
2 1   40.429   -1.547  -11.400
3 1   38.295   -7.429  -13.611
4 1   34.978   -5.568  -12.992
5 1   35.879   -0.891  -13.407
6 1   31.884   -6.784  -14.467
7 1   29.905   -3.124  -14.776
8 1   33.480   -1.231  -15.972
9 1   26.892   -3.131  -16.928
10 1   28.599   -3.089  -19.976
11 1   25.556   -3.244  -23.151
12 1   31.256   -0.576  -20.780
13 1   30.239   -0.180  -24.940
14 1   25.273   -0.565  -25.980
15 1   31.922    1.997  -27.241
16 1   29.030    2.022  -30.325
17 1   29.526    4.128  -33.518
18 1   27.434    1.508  -35.904
19 1   23.166    1.480  -34.886
20 1    7.175   15.145   42.348
21 1    3.312   13.294   41.864
22 1   21.018    2.780  -37.316
23 1    2.441   12.508   38.462
24 1   -1.590   13.178   39.380
25 1   -1.024   17.127   41.058
26 1   -4.132   12.675   36.544
27 1   -6.851   15.147   37.952
28 1   -4.680   19.238   39.811
29 1  -10.321   15.891   36.348
30 1   -9.513   19.321   35.010