ITEM: TIMESTEP
0
ITEM: NUMBER OF ATOMS
63
ITEM: BOX BOUNDS pp pp pp
-22.9325008392334 62.58149719238281
-7.471500396728516 78.04249572753906
-41.57579803466797 43.938201904296875
ITEM: ATOMS id type xu yu zu
1 1    3.849   17.407  -25.097
2 1    5.187   14.896  -21.303
3 1    3.856   20.817  -24.899
4 1    0.863   21.333  -26.895
5 1   -2.067   18.626  -26.264
6 1   -2.808   18.266  -30.213
7 1   -6.767   16.511  -29.928
8 1   -0.734   16.787  -32.933
9 1   -2.544   13.272  -33.090
10 1   -6.694   15.051  -33.580
11 1   -1.270   10.999  -35.349
12 1   -4.631    9.579  -35.849
13 1   -6.167   12.984  -36.864
14 1   -5.177    6.824  -37.892
15 1   -9.046    7.288  -38.507
16 1   -8.497   10.893  -39.618
17 1  -10.517    4.787  -40.206
18 1  -14.097    6.702  -41.054
19 1  -12.312   10.918  -40.541
20 1  -16.881    5.744  -38.879
21 1  -16.943    8.413  -36.442
22 1  -21.153    8.231  -35.556
23 1  -14.899    8.501  -33.635
24 1  -16.861   11.514  -31.927
25 1  -21.159    9.997  -32.119
26 1  -15.921   12.967  -29.101
27 1  -19.816   13.555  -28.294
28 1  -20.951    9.593  -28.120
29 1  -20.738   15.070  -25.189
30 1  -22.933   12.014  -23.756
31 1  -19.196    9.509  -24.392
32 1    2.341   -1.903   39.301
33 1    0.082   -5.984   40.526
34 1    0.323    0.137   36.983
35 1   -3.264   -1.952   38.286
36 1   -5.487    0.829   40.783
37 1   -5.554   -3.216   36.113
38 1   -8.589   -3.025   38.747
39 1   -7.030   -2.029   42.794
40 1  -11.394   -5.045   38.900
41 1  -11.222   -4.810   43.157
42 1  -10.119    0.027  -41.576
43 1  -14.202   -5.910  -40.365
44 1  -13.097   -4.548  -37.115
45 1  -12.711    0.180  -38.390
46 1  -15.852   -5.265  -34.448
47 1  -13.836   -3.263  -31.462
48 1  -14.055   -6.322  -27.741
49 1  -10.536   -1.578  -31.790
50 1   -9.716   -1.938  -27.847
51 1  -10.486   -6.584  -27.183
52 1   -6.605   -0.778  -26.509
53 1   -7.078   -3.855  -23.706
54 1   -6.927   -7.472  -26.385
55 1   -4.797   -4.211  -21.136
56 1   -1.477   -5.398  -23.314
57 1   -2.715   -4.457  -28.065
58 1    1.304   -4.262  -22.580
59 1    2.921   -5.931  -25.584
60 1    0.831   -3.166  -28.973
61 1    6.073   -5.307  -26.065
62 1    5.454   -1.186  -26.130
63 1    2.847   -0.260  -30.083
ITEM: TIMESTEP
1
ITEM: NUMBER OF ATOMS
63
ITEM: BOX BOUNDS pp pp pp
-19.24092674255371 66.2730712890625
-13.098078727722168 72.41592407226562
-34.63504409790039 50.87895584106445
ITEM: ATOMS id type xu yu zu
1 1  -10.213   27.434  -29.467
2 1  -10.019   31.783  -30.419
3 1   -6.954   25.824  -29.386
4 1   -5.559   25.879  -25.876
5 1   -4.773   22.133  -24.673
6 1   -5.175   23.039  -20.791
7 1   -9.106   24.423  -22.022
8 1   -4.517   19.990  -18.431
9 1   -8.067   19.786  -16.167
10 1  -10.375   22.716  -18.516
11 1   -9.606   17.020  -15.527
12 1  -10.956   16.432  -19.332
13 1   -7.213   15.912  -20.864
14 1  -13.437   13.771  -20.031
15 1  -10.677   11.029  -21.194
16 1   -7.746   12.474  -18.684
17 1  -11.596    7.834  -21.551
18 1   -7.711    6.393  -21.534
19 1   -8.941    2.543  -19.720
20 1   -5.937    6.101  -24.661
21 1   -3.180    4.200  -23.283
22 1   -5.792    0.749  -21.372
23 1   -0.678    3.630  -25.757
24 1    1.061    1.048  -23.545
25 1   -2.754   -1.252  -23.025
26 1    4.258   -0.455  -25.261
27 1    2.192   -1.295  -28.769
28 1   -1.202   -3.121  -26.404
29 1    3.516   -3.357  -31.509
30 1    2.630   -1.207  -34.443
31 1    7.103   -0.408  -34.635
32 1   -2.605    7.692   -4.392
33 1   -6.085    7.054   -7.408
34 1   -1.816    4.192   -2.782
35 1   -5.833    2.981   -4.499
36 1   -5.238    3.606   -8.931
37 1   -7.353   -0.638   -3.707
38 1   -9.908    0.287   -5.531
39 1   -8.290    1.639   -9.788
40 1  -12.344   -2.103   -5.499
41 1  -14.090   -0.953   -9.040
42 1  -10.948   -0.566  -12.008
43 1  -16.583   -3.029  -10.513
44 1  -17.294   -0.857  -13.473
45 1  -12.884    0.340  -15.017
46 1  -19.241   -2.428  -15.925
47 1  -17.966    0.146  -18.708
48 1  -13.991   -0.136  -18.602
49 1  -18.951    0.374  -22.297
50 1  -17.058   -2.567  -23.403
51 1  -12.661   -1.373  -21.868
52 1  -17.156   -4.139  -26.478
53 1  -13.404   -5.306  -26.561
54 1  -11.940   -4.962  -21.605
55 1  -11.750   -7.432  -28.524
56 1   -8.883   -8.315  -25.936
57 1   -7.988   -4.694  -22.951
58 1   -7.773  -11.777  -25.080
59 1   -6.480  -11.024  -21.561
60 1   -5.372   -6.543  -21.341
61 1   -3.961  -13.098  -19.808
62 1   -2.523  -10.349  -17.872
63 1   -1.805   -6.504  -20.392
ITEM: TIMESTEP
2
ITEM: NUMBER OF ATOMS
63
ITEM: BOX BOUNDS pp pp pp
-33.662391662597656 51.85160827636719
-53.319732666015625 32.19426727294922
-64.60981750488281 20.90418243408203
ITEM: ATOMS id type xu yu zu
1 1  -26.119   21.502  -17.224
2 1  -33.662  -53.320  -51.921
3 1  -26.199   22.496  -20.492
4 1  -28.097   19.648  -21.366
5 1   53.411    8.648  -12.523
6 1  -29.324   23.416  -25.494
7 1  -26.112   21.595  -26.374
8 1   53.387   14.381  -16.688
9 1  -26.930   27.270  -29.150
10 1  -24.466   23.548  -29.519
11 1  -30.408  -46.649  -64.610
12 1  -28.859  -49.055  -61.689
13 1  -21.927   25.556  -27.200
14 1  -26.962  -47.342  -59.338
15 1  -25.347  -50.475  -57.679
16 1  -19.217   25.177  -24.234
17 1  -22.760  -50.365  -55.099
18 1  -16.314   23.482  -18.001
19 1  -16.643   23.335  -21.865
20 1  -12.986   22.605  -16.353
21 1  -14.145   19.184  -15.154
22 1  -14.985   17.539  -19.066
23 1  -11.923   17.028  -13.180
24 1   -8.670   17.141  -15.303
25 1  -11.029   16.755  -19.085
26 1   -6.730   20.121  -15.122
27 1   -4.662   18.539  -18.004
28 1   -7.767   18.341  -20.535
29 1   -2.028   20.196  -19.075
30 1   -3.762   22.912  -21.248
31 1   -5.420   19.884  -23.541
32 1   -4.629   -3.435  -13.677
33 1   -6.298   -3.319  -17.923
34 1   -5.068   -0.002  -12.180
35 1   -8.880    0.431  -13.123
36 1   -8.995   -0.529  -17.316
37 1  -11.587   -0.673  -11.179
38 1  -14.348   -1.336  -14.304
39 1  -11.347   -3.438  -16.901
40 1  -17.110   -3.545  -13.893
41 1  -17.229   -3.947  -17.424
42 1  -13.117   -6.541  -18.076
43 1  -20.124   -5.477  -18.971
44 1  -22.097   -2.597  -17.950
45 1  -20.016    0.820  -19.874
46 1  -25.463   -2.079  -18.404
47 1  -25.179    1.599  -18.427
48 1  -22.079    2.522  -22.379
49 1  -24.055    3.353  -15.186
50 1  -25.781    7.022  -15.987
51 1  -30.209    5.879  -15.558
52 1  -25.162   10.331  -14.285
53 1  -28.016   11.684  -15.043
54 1  -30.810    8.983  -13.715
55 1  -29.040   15.309  -14.232
56 1   51.517    3.774   -3.256
57 1   50.507    0.174   -0.814
58 1   49.496    6.132   -2.897
59 1   46.834    3.649   -1.503
60 1   46.071    1.388   -5.057
61 1   43.691    4.605    0.103
62 1   44.661    2.957    3.204
63 1   48.922    3.780    4.012
ITEM: TIMESTEP
3
ITEM: NUMBER OF ATOMS
63
ITEM: BOX BOUNDS pp pp pp
-26.020557403564453 59.49344253540039
-7.838435173034668 77.67556762695312
-35.35926818847656 50.15473175048828
ITEM: ATOMS id type xu yu zu
1 1    9.786   12.890  -20.894
2 1   11.576   11.595  -24.631
3 1    8.544    9.566  -19.018
4 1    4.686   10.162  -19.434
5 1    2.842    7.555  -17.842
6 1   -0.505    8.077  -20.419
7 1   -0.141    4.491  -21.776
8 1   -4.148    9.105  -19.230
9 1   -4.757   10.083  -22.690
10 1   -3.437    5.920  -24.103
11 1   -7.468   11.288  -23.512
12 1   -7.502   10.510  -26.969
13 1   -6.959    6.428  -26.360
14 1  -10.118   11.548  -29.142
15 1  -10.602    7.654  -30.488
16 1  -10.804    5.392  -26.823
17 1  -13.164    6.865  -33.470
18 1  -16.074    7.131  -30.553
19 1  -14.437    4.362  -28.074
20 1  -19.350    5.979  -31.673
21 1  -21.162    6.372  -27.975
22 1  -17.986    4.895  -26.104
23 1  -24.568    5.084  -27.245
24 1  -25.444    8.144  -24.865
25 1  -26.021   11.002  -28.229
26 1  -22.817    9.254  -22.359
27 1  -22.280   12.572  -23.826
28 1  -25.999   13.905  -23.588
29 1  -19.740   14.920  -23.053
30 1  -21.856   17.701  -24.363
31 1  -24.662   17.238  -21.677
32 1  -11.379   -0.390    4.861
33 1  -14.653   -2.101    8.220
34 1  -13.043    1.726    2.110
35 1   -9.863    1.804   -0.050
36 1  -11.833    1.112   -4.204
37 1   -8.155    5.146   -0.182
38 1   -6.070    3.930   -3.377
39 1   -5.219   -0.329   -2.433
40 1   -3.532    6.103   -4.614
41 1   -1.171    3.466   -6.781
42 1   -0.283    5.379  -10.697
43 1   -2.291    0.186   -7.024
44 1    0.490   -0.735   -9.276
45 1   -0.283    2.399  -12.858
46 1    0.989   -3.934  -10.251
47 1   -0.937   -3.242  -13.428
48 1    1.950   -3.294  -16.771
49 1   -4.135   -4.904  -14.440
50 1   -3.402   -5.237  -18.088
51 1   -0.112   -7.838  -18.054
52 1   -6.167   -6.416  -20.132
53 1   -6.751   -3.584  -22.744
54 1   -3.282   -0.482  -23.464
55 1   -8.370   -4.066  -25.673
56 1   -4.948   -4.323  -27.780
57 1   -2.848   -0.065  -26.969
58 1   -4.740   -5.174  -31.582
59 1   -4.686   -1.186  -33.151
60 1   -4.993    1.531  -29.467
61 1   -2.365   -0.120  -35.359
62 1   -2.768    3.596  -34.682
63 1   -2.183    3.924  -29.627
ITEM: TIMESTEP
4
ITEM: NUMBER OF ATOMS
63
ITEM: BOX BOUNDS pp pp pp
-28.59084129333496 56.92315673828125
-56.513519287109375 29.00048065185547
-76.29485321044922 9.219146728515625
ITEM: ATOMS id type xu yu zu
1 1  -12.319    3.162   32.234
2 1  -14.733    6.677   33.144
3 1  -28.591   40.697  -40.009
4 1   -9.296    6.788   34.955
5 1  -25.307   46.494  -37.523
6 1   -4.338  -25.650  -75.555
7 1  -27.112   41.534  -34.317
8 1   -1.890  -25.543  -73.607
9 1  -20.837   43.309  -33.994
10 1  -23.417   39.869  -33.880
11 1  -17.311   42.261  -32.794
12 1  -18.484   39.109  -30.459
13 1  -20.275   37.591  -33.908
14 1  -16.206   36.944  -28.801
15 1  -17.969   34.081  -31.242
16 1  -16.696   36.292  -34.889
17 1  -17.315   30.680  -30.942
18 1  -18.274   30.148  -34.313
19 1  -15.346   32.797  -35.944
20 1  -18.406   26.696  -35.567
21 1  -17.237   26.879  -38.977
22 1  -15.347   30.308  -38.918
23 1  -15.882   23.787  -40.882
24 1  -12.270   25.016  -42.275
25 1  -14.059   29.046  -42.419
26 1   -9.057   24.985  -40.005
27 1   -7.091   27.179  -42.982
28 1   -5.444   23.116  -44.727
29 1   -9.291   29.436  -44.950
30 1   -7.168   29.545  -48.446
31 1   -5.361   25.572  -47.914
32 1  -14.048    0.569   17.104
33 1  -13.130    4.879   17.161
34 1  -15.001   -0.045   20.814
35 1  -11.696    0.906   21.734
36 1  -11.416    5.322   20.563
37 1  -10.720    0.489   25.599
38 1   -7.141    2.624   25.310
39 1   -8.189    7.013   24.294
40 1   -4.994    2.798   28.702
41 1   -3.251    6.211   27.032
42 1   -6.678    9.076   27.075
43 1   -0.905    7.793   28.430
44 1   -2.240   11.507   27.419
45 1   -6.749   11.923   29.869
46 1    0.133   14.208   28.033
47 1   18.845  -54.171  -13.351
48 1   15.715  -56.514  -10.153
49 1   19.649  -50.655  -12.089
50 1   16.376  -50.448   -9.807
51 1   16.682  -54.462   -7.092
52 1   15.597  -47.505   -7.876
53 1   13.371  -49.345   -5.602
54 1   15.628  -53.117   -3.927
55 1   10.893  -48.136   -4.003
56 1    9.986  -50.963   -1.762
57 1   -5.275  -14.643  -75.000
58 1  -10.986  -12.646  -73.221
59 1   -9.606  -15.461  -71.165
60 1   -6.677  -17.887  -74.065
61 1  -12.301  -17.725  -69.910
62 1  -11.515  -20.928  -72.265
63 1   -9.623  -18.906  -76.295
ITEM: TIMESTEP
5
ITEM: NUMBER OF ATOMS
63
ITEM: BOX BOUNDS pp pp pp
-62.55451965332031 22.95948028564453
-24.406644821166992 61.10735321044922
-53.42435836791992 32.08964157104492
ITEM: ATOMS id type xu yu zu
1 1   -6.628  -22.812   26.238
2 1   -5.252  -24.407   22.963
3 1   -3.521   -2.258  -53.226
4 1    0.489   -0.245  -53.424
5 1   -0.006  -20.363   26.539
6 1    3.042  -18.812   28.726
7 1    1.201  -15.083   29.915
8 1    6.336  -18.680   26.933
9 1   10.369    0.817  -53.174
10 1   11.795  -16.964   29.332
11 1    9.196    0.812  -49.847
12 1   12.002    0.083  -48.393
13 1   13.654    4.000  -49.645
14 1   11.878   -0.765  -45.146
15 1   15.975   -0.277  -44.839
16 1   14.989    3.289  -45.999
17 1   17.398   -0.492  -41.438
18 1   20.225    1.500  -42.390
19 1   17.896    5.025  -43.840
20 1  -62.555    6.132  -40.522
21 1  -60.390    8.346  -43.264
22 1   21.581    5.888  -45.062
23 1  -57.524   10.315  -42.693
24 1  -58.014   12.558  -46.118
25 1  -61.626   13.140  -45.489
26 1  -56.649   15.664  -46.193
27 1  -59.809   17.698  -48.374
28 1  -62.041   17.427  -45.194
29 1  -59.005   20.729  -49.211
30 1  -56.228   20.943  -46.516
31 1  -58.928   19.388  -43.637
32 1    2.142    2.159   13.461
33 1   -2.570    0.175   12.213
34 1    1.942    4.365   16.332
35 1    4.971    2.314   17.884
36 1    7.531    5.369   20.267
37 1    3.543   -0.556   20.212
38 1    6.206   -0.400   23.607
39 1    9.732    3.094   22.317
40 1    7.477   -3.697   25.026
41 1    7.466   -2.283   28.935
42 1   10.536    1.627   28.940
43 1    8.545   -4.297   31.465
44 1    7.768   18.116  -48.525
45 1    1.766   -3.156   32.604
46 1    7.916   15.957  -45.037
47 1    4.021   17.677  -43.955
48 1    0.873   16.253  -47.478
49 1    2.537   16.949  -40.946
50 1   -0.955   17.957  -41.973
51 1   -1.731   15.089  -45.128
52 1   -3.086   18.303  -39.904
53 1   -5.844   17.439  -42.077
54 1   -4.747   13.232  -43.015
55 1   -9.293   17.373  -40.841
56 1  -10.528   15.103  -43.676
57 1   -8.046   11.304  -43.091
58 1  -11.908   16.410  -47.228
59 1   -9.914   13.638  -49.492
60 1   -9.775   10.095  -46.198
61 1   -8.271   -6.485   31.773
62 1   -7.595   -9.759   29.868
63 1  -12.156  -11.393   28.298
ITEM: TIMESTEP
6
ITEM: NUMBER OF ATOMS
63
ITEM: BOX BOUNDS pp pp pp
-74.01806640625 11.495933532714844
-22.49852752685547 63.015472412109375
-52.164249420166016 33.34975051879883
ITEM: ATOMS id type xu yu zu
1 1    6.794   17.073  -40.253
2 1    4.606   14.261  -42.967
3 1    9.575   15.342  -38.623
4 1    7.724   13.214  -36.654
5 1    9.817   10.696  -35.446
6 1    7.069    8.350  -34.109
7 1    7.158   10.855  -30.344
8 1    7.558    4.877  -33.865
9 1    4.479    4.272  -31.223
10 1    6.064    7.176  -29.331
11 1    4.216    1.040  -30.223
12 1    2.720   -0.142  -34.168
13 1    3.677   -4.165  -33.129
14 1   -0.643    0.584  -35.876
15 1   -1.073   -3.145  -37.507
16 1   -0.208   -4.852  -33.487
17 1   -4.441   -4.512  -38.507
18 1   -2.643   -7.439  -40.284
19 1   -6.344   -8.583  -42.124
20 1    0.021   -6.578  -42.146
21 1  -52.134   57.633  -44.917
22 1   -3.378   -9.819  -44.795
23 1  -49.176   57.580  -47.764
24 1  -51.159   59.453  -50.107
25 1   -1.823  -10.201  -48.406
26 1  -67.467   46.918   28.973
27 1  -18.309  -19.641   27.999
28 1   -2.648   -8.929  -52.164
29 1  -18.906  -20.501   24.377
30 1  -22.373  -22.499   24.859
31 1  -74.018   42.790   26.790
32 1   -3.240    4.844   36.081
33 1    1.694    5.518   35.939
34 1   -4.205    4.998   32.694
35 1   -3.686    0.735   32.135
36 1   -5.251   -1.151   35.686
37 1   -4.860   -0.746   28.827
38 1   -5.669   -4.025   30.375
39 1   -7.988   -2.586   33.805
40 1   -7.535   -6.472   28.426
41 1   -8.849   -8.402   31.855
42 1    7.375    7.659  -47.428
43 1  -10.962  -11.050   31.724
44 1    6.383    1.094  -47.423
45 1    5.381    5.065  -45.816
46 1    4.114   -1.371  -45.853
47 1    3.657    0.658  -43.116
48 1    1.515    3.638  -45.239
49 1    1.608   -0.899  -40.911
50 1   -0.676    2.423  -41.378
51 1   -1.820    1.955  -46.005
52 1   -3.306    2.984  -39.415
53 1   -5.073    4.949  -41.966
54 1   -5.352    1.821  -45.497
55 1   -7.979    6.419  -41.408
56 1   -9.791    5.336  -44.885
57 1   -6.019    4.892  -48.002
58 1  -13.458    6.150  -46.386
59 1  -11.993    7.191  -50.016
60 1   -8.772    3.520  -50.557
61 1  -32.247   -4.983   29.919
62 1  -29.060   -4.211   27.462
63 1  -30.270   -6.491   23.447
ITEM: TIMESTEP
7
ITEM: NUMBER OF ATOMS
63
ITEM: BOX BOUNDS pp pp pp
-20.764549255371094 64.74945068359375
-25.740108489990234 59.77389144897461
-55.37724304199219 30.136756896972656
ITEM: ATOMS id type xu yu zu
1 1   -9.209   28.133  -21.275
2 1  -12.120   25.493  -23.108
3 1   -7.291   29.823  -24.025
4 1   -5.991   26.126  -25.610
5 1   -2.942   26.004  -27.457
6 1   -3.920   23.001  -29.303
7 1   -6.701   25.038  -31.502
8 1   -1.380   21.616  -31.079
9 1   -4.291   20.152  -33.544
10 1   -5.085   24.157  -34.968
11 1   -3.612   18.124  -36.373
12 1   -5.661   20.909  -38.912
13 1   -2.598   23.923  -38.018
14 1   -5.674   19.873  -42.278
15 1   -1.791   18.692  -42.836
16 1   -0.412   21.595  -40.539
17 1   -0.417   18.636  -46.459
18 1   -0.020   15.078  -46.498
19 1    2.496   15.694  -42.794
20 1    1.424   13.190  -49.582
21 1   -0.311    9.432  -48.658
22 1   -1.667    8.504  -52.271
23 1   -2.534    9.316  -46.168
24 1   -4.724   12.412  -47.125
25 1   -5.224   10.228  -50.528
26 1   -7.439   13.509  -45.005
27 1   -9.023   15.206  -48.110
28 1   -8.598   12.222  -50.888
29 1   -7.878   18.264  -48.954
30 1  -10.381   19.005  -51.133
31 1  -12.003  -19.490   24.966
32 1   -6.836    0.043   21.805
33 1   -9.626   -1.474   18.462
34 1   -3.723   -2.103   22.328
35 1   -4.079   -4.116   19.096
36 1   -8.788   -5.101   17.741
37 1   -2.100   -6.488   18.044
38 1   -4.962   -8.292   15.800
39 1   -4.871  -12.980   16.434
40 1   -8.135   -7.395   15.915
41 1   -8.860  -11.002   15.114
42 1   -7.551  -14.322   18.954
43 1   -8.665  -12.380   11.816
44 1   -9.884  -15.600   12.789
45 1   -7.599  -17.342   16.662
46 1  -10.617  -17.992   10.740
47 1  -12.942  -19.933   14.069
48 1  -11.069  -17.660   18.153
49 1  -16.645  -19.778   13.637
50 1  -17.360  -22.382   15.974
51 1  -14.229  -21.681   19.770
52 1  -20.765  -23.933   16.724
53 1  -19.530  -25.740   20.218
54 1  -16.382  -23.623   21.943
55 1  -19.613    7.660  -55.377
56 1  -16.199    5.535  -53.741
57 1  -12.438    8.438  -53.194
58 1  -16.517    3.147  -50.877
59 1  -12.301    2.079  -50.454
60 1   -9.702    6.413  -51.599
61 1  -11.148   -0.220  -52.413
62 1   -7.054    0.296  -51.204
63 1   -6.430    4.630  -51.641
ITEM: TIMESTEP
8
ITEM: NUMBER OF ATOMS
63
ITEM: BOX BOUNDS pp pp pp
-48.077674865722656 37.43632507324219
-17.128999710083008 68.38500213623047
-36.94461441040039 48.56938552856445
ITEM: ATOMS id type xu yu zu
1 1   -2.903   26.990  -36.018
2 1   -6.647   28.616  -36.945
3 1   -1.985   27.679  -32.260
4 1   -4.431   24.879  -30.860
5 1   -3.836   23.689  -27.629
6 1   -3.869   19.639  -28.744
7 1   -1.447   20.530  -32.312
8 1   -2.506   17.218  -26.721
9 1   -3.299   14.391  -29.013
10 1   -0.429   12.363  -27.405
11 1   -6.521   12.956  -28.631
12 1   -5.777    8.967  -29.699
13 1   -2.650    8.627  -27.212
14 1   -8.298    6.395  -29.815
15 1   -5.933    3.830  -30.963
16 1   -3.340    4.755  -28.270
17 1   -6.541    0.582  -31.125
18 1   -2.872   -0.368  -30.870
19 1   -2.550    0.825  -26.721
20 1   -1.663   -3.711  -31.425
21 1    1.275   -2.882  -28.273
22 1   -2.072   -3.110  -25.562
23 1    3.563   -5.113  -27.342
24 1    1.226   -7.828  -28.887
25 1   -1.809   -6.957  -25.521
26 1  -48.078   53.183   -2.702
27 1  -46.520   53.023    0.431
28 1    0.506   -9.232  -23.369
29 1  -44.637   50.247    1.737
30 1  -45.129   50.970    5.162
31 1  -47.442   47.263    5.300
32 1  -15.467   -2.210   -9.957
33 1  -12.639   -4.485  -13.103
34 1  -14.503    1.238   -9.084
35 1  -10.530    0.306   -9.101
36 1  -10.561   -1.427  -13.413
37 1   -8.206    2.680   -8.480
38 1   -5.552    1.054  -10.774
39 1   -7.577   -0.232  -14.872
40 1   -2.118    2.774  -10.875
41 1   -0.453   -0.520   -9.865
42 1    1.179    1.074   -5.357
43 1    2.298   -1.835  -12.124
44 1    2.013   -5.699  -10.906
45 1   -2.760   -6.149   -9.497
46 1    3.387   -8.392  -12.928
47 1    0.957  -11.177  -11.200
48 1   -3.470   -9.256  -11.825
49 1    1.101  -15.162  -12.147
50 1   -1.806  -14.551  -14.159
51 1   -1.233  -10.550  -16.455
52 1   -2.889  -17.129  -16.177
53 1   -5.716  -14.567  -17.857
54 1   -3.232  -11.414  -19.444
55 1   -7.476  -16.340  -20.765
56 1   -9.584  -12.851  -21.654
57 1   -5.457   -9.904  -22.176
58 1  -11.945  -12.767  -24.516
59 1  -11.712   -8.775  -25.068
60 1   -7.579   -7.750  -24.382
61 1  -13.277   -6.969  -27.445
62 1  -12.216   -3.390  -25.905
63 1   -7.961   -3.473  -25.175
ITEM: TIMESTEP
9
ITEM: NUMBER OF ATOMS
63
ITEM: BOX BOUNDS pp pp pp
-32.759700775146484 52.75429916381836
-37.52619171142578 47.98780822753906
-63.93029022216797 21.583709716796875
ITEM: ATOMS id type xu yu zu
1 1   10.546  -29.833  -45.140
2 1   12.137  -26.648  -42.489
3 1    7.013  -30.284  -44.489
4 1    5.581  -27.698  -46.691
5 1    2.173  -27.535  -47.781
6 1    3.112  -26.272  -50.825
7 1  -22.368   15.860   15.540
8 1  -27.689   19.581   13.348
9 1  -24.396   20.693   11.102
10 1  -22.611   17.457   11.894
11 1  -24.847   21.848    7.322
12 1  -21.961   20.161    5.984
13 1  -19.817   19.475    9.892
14 1  -20.184   21.551    3.523
15 1  -20.387   18.581    1.249
16 1  -24.640   18.540    0.677
17 1  -18.261   18.173   -1.769
18 1  -20.671   16.357   -3.825
19 1  -23.694   18.859   -3.111
20 1  -19.880   15.191   -7.208
21 1  -23.541   15.922   -9.080
22 1  -22.665   20.145   -8.319
23 1  -24.081   14.894  -12.869
24 1  -27.402   17.207  -12.870
25 1  -25.184   20.573  -11.448
26 1  -29.634   17.369  -16.046
27 1  -30.596   20.633  -15.430
28 1  -26.863   22.326  -14.956
29 1  -32.760   22.121  -17.250
30 1   -6.686  -37.526   35.875
31 1  -27.229   23.624  -18.850
32 1   -4.194  -26.033   47.881
33 1   -2.128  -21.947   48.126
34 1  -26.104   34.529   -4.160
35 1  -23.045   37.371   -4.274
36 1   -0.771  -21.614   51.505
37 1  -19.746   36.717   -2.368
38 1  -18.289   40.827   -2.642
39 1    2.337  -19.538   51.776
40 1  -15.413   41.754   -0.700
41 1  -17.092   41.011    2.626
42 1    7.348   -1.679  -63.930
43 1   13.229   -3.867  -61.009
44 1   10.683   -1.546  -59.556
45 1    6.438   -3.696  -60.869
46 1   11.539   -0.848  -55.621
47 1    7.780   -0.707  -54.839
48 1    5.986   -4.170  -57.380
49 1    6.709   -0.209  -51.286
50 1    3.634   -2.113  -51.788
51 1    4.861   -6.088  -53.990
52 1    1.536   -2.791  -48.712
53 1    3.568   -5.716  -47.689
54 1    4.666   -8.324  -51.112
55 1    3.277   -7.817  -44.905
56 1    6.585  -10.041  -45.388
57 1    7.722  -10.402  -49.809
58 1    9.277   -9.387  -43.307
59 1   12.144   -9.445  -45.685
60 1   10.473  -12.844  -48.597
61 1   15.320   -9.688  -44.628
62 1   15.843   -6.856  -41.600
63 1   11.718   -5.620  -40.378
