ITEM: TIMESTEP
0
ITEM: NUMBER OF ATOMS
64
ITEM: BOX BOUNDS pp pp pp
-43.454898834228516 42.05910110473633
-42.06529998779297 43.448699951171875
-1.6404297351837158 83.87357330322266
ITEM: ATOMS id type xu yu zu
1 1   40.343   26.709   19.448
2 1   43.614   26.013   16.781
3 1   40.584   30.019   21.235
4 1   37.717   31.434   18.499
5 1   39.770   30.056   15.236
6 1   34.020   30.182   18.686
7 1   33.716   30.343   15.118
8 1   36.643   27.653   14.782
9 1   30.739   29.752   13.663
10 1   31.721   28.875    9.873
11 1   35.362   27.802   10.958
12 1   31.521   31.705    7.239
13 1   33.451   29.924    4.171
14 1   36.636   28.896    7.300
15 1   34.399   31.648    1.567
16 1   38.403   31.383    2.622
17 1   37.979   32.706    6.220
18 1   41.001   32.843    0.801
19 1   39.145   36.559    0.257
20 1   37.868   36.149    4.252
21 1   40.843   39.465   -0.708
22 1   38.314   42.045    0.707
23 1   35.605   39.030    2.632
24 1   36.648  -41.132   -1.640
25 1   36.575  -37.907    1.065
26 1   33.885  -35.900   -1.269
27 1   35.871  -38.339    4.659
28 1   37.242  -34.624    5.063
29 1   34.994  -33.011    1.259
30 1   36.560  -32.858    8.715
31 1   34.315  -30.112    7.642
32 1   32.385  -32.710    4.486
33 1  -43.455  -37.634   25.868
34 1   40.475  -39.314   29.336
35 1  -42.188  -40.159   23.535
36 1  -43.241   42.102   25.872
37 1   38.644  -42.065   27.538
38 1  -42.952   38.919   24.059
39 1  -39.907   40.514   21.910
40 1  -36.888   41.631   25.549
41 1  -38.154   38.571   19.445
42 1  -37.053   35.815   22.070
43 1  -36.069   38.014   25.405
44 1  -35.391   33.317   21.371
45 1  -34.617   34.809   17.750
46 1  -32.831   30.995   15.565
47 1  -37.171   36.165   15.859
48 1  -35.300   35.128   12.609
49 1  -35.693   30.605   12.911
50 1  -35.816   36.321    8.958
51 1  -36.056   32.590    7.641
52 1  -38.681   30.554   10.742
53 1  -37.242   31.883    4.317
54 1  -38.225   28.194    4.865
55 1  -41.065   28.912    8.283
56 1  -38.966   25.970    2.718
57 1  -41.050   23.622    5.433
58 1   41.966   26.334    7.085
59 1  -42.370   20.976    4.502
60 1   41.527   20.126    7.768
61 1   39.576   24.027    8.900
62 1   39.394   16.787    8.144
63 1   37.524   17.982   11.686
64 1   37.542   22.287   11.753
ITEM: TIMESTEP
1
ITEM: NUMBER OF ATOMS
64
ITEM: BOX BOUNDS pp pp pp
-2.68086314201355 82.83313751220703
1.0872405767440796 86.60124206542969
1.2063679695129395 86.72036743164062
ITEM: ATOMS id type xu yu zu
1 1   25.911   31.610    8.985
2 1   26.365   29.643    4.960
3 1   23.124   30.700   10.989
4 1   22.454   34.145   11.637
5 1   21.020   35.121    7.474
6 1   20.189   34.641   14.247
7 1   17.004   32.594   12.775
8 1   17.969   32.592    8.189
9 1   13.447   33.383   14.070
10 1   12.455   29.933   12.865
11 1   15.812   27.941   14.593
12 1    9.076   28.401   14.147
13 1   10.642   25.177   13.969
14 1    7.176   23.447   13.344
15 1   12.666   24.836   11.371
16 1   12.616   21.115   10.847
17 1    8.399   20.910   10.691
18 1   14.211   19.575    8.125
19 1   13.128   15.892    9.120
20 1    9.162   17.103   10.002
21 1   15.055   14.229   10.916
22 1   13.941   10.679    9.657
23 1   10.109   10.822   12.067
24 1   16.135    7.446    9.865
25 1   13.811    5.321    8.554
26 1   10.516    6.989   10.444
27 1   13.942    5.300    5.236
28 1   10.433    3.258    4.659
29 1    7.953    5.080    7.940
30 1    8.972    3.649    1.307
31 1    5.303    5.309    2.642
32 1    5.016    3.066    6.462
33 1    0.247   29.132    8.876
34 1    2.347   25.698   10.605
35 1    0.891   29.850    5.672
36 1    1.715   25.720    4.621
37 1    3.636   23.476    7.968
38 1    2.599   24.478    1.206
39 1    2.044   20.910    2.107
40 1    4.873   20.059    6.108
41 1   -1.114   19.242    1.751
42 1    0.097   15.830    4.061
43 1    2.043   18.270    7.532
44 1   -2.681   13.395    5.500
45 1   -0.600   12.371    8.886
46 1    3.756   15.230    8.687
47 1   -2.228   12.742   12.063
48 1    0.723   13.356   14.267
49 1    3.450   17.073   12.050
50 1    0.454   14.050   17.445
51 1    4.087   14.788   18.291
52 1    4.838   18.418   15.378
53 1    4.970   15.917   21.894
54 1    8.384   15.059   21.456
55 1    8.891   14.245   17.026
56 1   10.021   12.555   23.853
57 1    8.020   10.015   22.282
58 1    8.214   10.823   17.913
59 1    9.087    6.455   23.002
60 1    6.592    4.919   20.422
61 1    7.436    7.601   16.156
62 1    6.101    1.087   20.198
63 1    4.525    1.402   16.921
64 1    6.708    4.500   14.423
ITEM: TIMESTEP
2
ITEM: NUMBER OF ATOMS
64
ITEM: BOX BOUNDS pp pp pp
-40.14828109741211 45.365718841552734
-3.645181179046631 81.86882019042969
-8.867653846740723 76.64634704589844
ITEM: ATOMS id type xu yu zu
1 1  -31.889   -3.144   33.804
2 1  -35.809   -1.854   32.412
3 1  -30.734   -2.956   36.940
4 1  -34.017   -3.645   38.509
5 1  -35.742    0.236   36.442
6 1   36.398   13.480   -2.620
7 1   37.818   17.368   -1.478
8 1   35.314   19.013   -4.390
9 1   37.211   18.262    1.538
10 1   36.676   22.212    0.941
11 1   33.493   21.551   -1.667
12 1   36.023   24.772    3.933
13 1   33.686   27.412    1.937
14 1   31.655   24.380    0.269
15 1   31.947   29.934    3.773
16 1   28.995   30.330    0.924
17 1   28.357   26.376    1.210
18 1   25.954   32.877    1.442
19 1   23.198   30.481   -0.396
20 1   24.226   26.937    1.595
21 1   19.818   30.861   -0.746
22 1   19.069   26.873   -1.560
23 1   20.773   25.206    1.906
24 1   15.220   25.384   -1.982
25 1   15.612   21.932   -0.858
26 1   17.329   22.878    2.460
27 1   12.239   19.907   -0.747
28 1   13.157   17.876    2.199
29 1   14.127   21.313    3.983
30 1   15.999   15.695    1.911
31 1   15.000   13.191    5.161
32 1   13.386   16.903    7.145
33 1    8.262   20.335   98.568
34 1  -36.329    3.261   29.588
35 1  -30.425    5.307   26.602
36 1  -31.144    6.775   29.766
37 1  -33.668    3.683   32.126
38 1  -28.000    8.284   31.910
39 1  -29.808    8.698   35.280
40 1  -32.926    5.371   35.281
41 1  -30.994   11.904   36.710
42 1  -34.743   11.435   36.221
43 1  -35.647    6.566   37.366
44 1  -37.532   13.594   37.510
45 1  -40.148   10.909   35.954
46 1   31.708   24.915   -6.275
47 1   26.671   29.396   -8.868
48 1   25.683   25.772   -8.225
49 1   28.369   24.371   -4.572
50 1   22.060   24.672   -7.213
51 1   23.090   21.178   -5.783
52 1   25.888   22.572   -2.409
53 1   20.654   18.575   -4.849
54 1   22.502   17.054   -2.012
55 1   24.286   20.958    0.574
56 1   20.809   14.428    0.633
57 1   22.972   15.150    3.591
58 1   22.635   19.820    3.755
59 1   22.555   13.598    6.621
60 1   23.268   16.967    8.966
61 1   20.699   20.627    6.882
62 1   23.005   16.815   12.112
63 1   22.390   20.917   12.655
64 1   23.502   22.624    8.314
ITEM: TIMESTEP
3
ITEM: NUMBER OF ATOMS
64
ITEM: BOX BOUNDS pp pp pp
-3.2570433616638184 82.2569580078125
-39.25958251953125 46.254417419433594
-1.205207347869873 84.30879211425781
ITEM: ATOMS id type xu yu zu
1 1    7.440   23.639   20.720
2 1    9.503   24.805   17.359
3 1    4.700   25.780   21.257
4 1    7.187   29.243   22.219
5 1    9.668   28.580   18.800
6 1    6.079   32.435   23.076
7 1    9.365   34.182   21.534
8 1    8.239   32.284   18.219
9 1    9.282   37.455   21.272
10 1   12.192   37.917   18.934
11 1   10.689   35.103   16.492
12 1   12.844   41.299   17.802
13 1   14.096   39.941   14.373
14 1   11.019   37.951   13.619
15 1   14.713   42.656   11.775
16 1   14.038   40.868    8.534
17 1   10.100   39.714    9.444
18 1   14.715   42.714    5.406
19 1   11.354   41.435    3.461
20 1   10.837   38.559    5.624
21 1   11.362   40.709    0.039
22 1    7.142   39.681    0.174
23 1    7.145   39.296    4.080
24 1    5.222   42.341   -1.205
25 1    2.024   41.712    0.179
26 1    4.022   41.640    4.163
27 1   -0.395   43.543    0.082
28 1    7.847  -38.128    5.494
29 1    9.445  -39.260    9.542
30 1    5.794  -34.689    5.352
31 1    8.514  -32.397    3.156
32 1    6.115  -29.646    1.931
33 1   19.483   32.497   10.860
34 1   15.638   33.757   13.546
35 1   18.827   33.702    7.897
36 1   15.235   31.711    7.459
37 1   12.755   32.535   11.711
38 1   12.986   32.004    4.563
39 1    9.959   30.842    6.359
40 1    9.341   33.404   10.168
41 1    6.282   30.678    4.482
42 1    4.295   31.506    7.453
43 1    6.290   35.273    8.927
44 1    0.641   31.610    7.796
45 1    0.895   34.461   10.558
46 1    3.494   37.402    8.280
47 1   -2.706   35.837   11.582
48 1   -0.891   39.260   12.840
49 1    1.723   40.578    9.562
50 1   -3.257   41.906   13.843
51 1   -0.674   44.317   13.988
52 1    1.564   44.334   10.184
53 1    5.316  -37.332   21.154
54 1    8.029  -35.195   18.743
55 1    7.904  -37.169   14.798
56 1    7.429  -31.557   17.694
57 1    9.339  -32.373   13.957
58 1   12.575  -28.809   13.567
59 1   11.487  -35.510   14.234
60 1   14.568  -34.752   15.753
61 1   16.016  -30.214   13.868
62 1   17.258  -36.832   16.222
63 1   19.649  -34.460   15.243
64 1   20.388  -36.195   10.570
ITEM: TIMESTEP
4
ITEM: NUMBER OF ATOMS
64
ITEM: BOX BOUNDS pp pp pp
-53.50868225097656 32.00531768798828
-13.86160659790039 71.65238952636719
0.8416351675987244 86.35563659667969
ITEM: ATOMS id type xu yu zu
1 1   20.186   29.440   18.106
2 1   19.233   33.274   17.642
3 1   23.626   28.308   16.826
4 1   22.925   28.648   13.044
5 1   26.311   26.510   12.616
6 1   20.316   27.543   11.477
7 1   22.487   26.716    8.140
8 1   24.189   23.666   10.499
9 1   21.072   25.929    5.048
10 1   23.721   23.192    3.896
11 1   22.424   20.811    7.602
12 1   23.810   20.765    0.842
13 1   26.262   18.271    3.173
14 1   23.138   17.451    5.411
15 1   27.489   15.254    1.059
16 1   26.809   12.684    3.838
17 1   23.338   13.823    3.710
18 1   27.500    9.011    3.341
19 1   24.197    7.894    4.552
20 1   24.146    9.746    8.606
21 1   23.902    4.310    4.499
22 1   20.104    4.188    5.828
23 1   20.571    7.346    9.056
24 1   18.688    0.805    6.768
25 1   14.717    2.225    6.030
26 1   15.386    6.289    7.807
27 1   13.830    2.417    2.531
28 1   10.582    5.107    2.901
29 1   11.656    6.038    6.320
30 1    7.160    4.195    2.114
31 1    7.486    0.379    3.700
32 1    8.005    2.094    7.415
33 1    2.468  -13.688   14.472
34 1    1.883   -9.833   16.320
35 1    1.650  -13.862   11.156
36 1    5.264  -12.251    9.742
37 1    6.160   -8.099   12.114
38 1  -53.509   45.318   13.211
39 1  -50.843   48.776   13.031
40 1   10.983   -8.845   14.450
41 1  -47.871   48.287   11.810
42 1  -46.264   51.564   13.700
43 1  -46.698   50.436   18.608
44 1  -43.116   52.152   13.148
45 1  -42.221   53.566   16.953
46 1   15.298   -4.845   16.148
47 1  -39.985   56.053   17.091
48 1   18.843   -1.101   12.505
49 1   15.750   -1.329   16.506
50 1   19.117    2.067   11.796
51 1   21.468    2.891   14.332
52 1  -36.158   64.231   15.163
53 1   20.366    4.297   17.220
54 1   23.068    6.235   17.769
55 1   24.836    7.809   14.390
56 1   23.455    8.112   20.450
57 1   24.844   11.487   18.799
58 1   27.738    9.622   15.667
59 1   26.591   14.044   20.971
60 1   29.152   14.774   17.951
61 1  -30.277   69.928   20.001
62 1   31.935   17.439   18.319
63 1   32.864   17.124   14.688
64 1  -27.919   71.883   17.890
ITEM: TIMESTEP
5
ITEM: NUMBER OF ATOMS
64
ITEM: BOX BOUNDS pp pp pp
-66.06242370605469 19.451576232910156
-50.78204345703125 34.731956481933594
-0.7521119713783264 84.76188659667969
ITEM: ATOMS id type xu yu zu
1 1   22.549    5.984    2.999
2 1   22.702    7.939    6.744
3 1   24.877    6.652    0.786
4 1   24.137   10.900    1.347
5 1   25.120   10.771    5.468
6 1   26.141   13.744   -0.752
7 1   29.377   11.757   -0.209
8 1   28.510   10.783    3.477
9 1   32.369   13.276   -0.545
10 1   31.073   16.190    1.033
11 1   29.771   14.659    4.817
12 1   33.070   19.508    0.916
13 1   31.507   20.285    4.393
14 1   33.102   16.541    6.032
15 1   32.595   23.328    6.000
16 1   31.832   23.096    9.954
17 1   31.410   18.741    9.715
18 1   28.579   25.160   11.216
19 1   28.197   23.268   14.894
20 1   29.525   19.256   13.602
21 1   25.328   23.691   16.501
22 1   26.103   20.705   18.757
23 1   28.298   23.248   21.878
24 1   27.772   18.054   17.738
25 1   26.170   15.698   20.882
26 1   21.793   15.525   19.379
27 1   27.991   12.402   22.292
28 1   25.296    9.834   20.642
29 1   21.850   12.184   22.394
30 1   25.280    5.786   20.778
31 1   25.102    5.771   17.295
32 1   24.496    9.616   16.684
33 1    0.474  -45.802   28.701
34 1  -66.062    0.008   24.784
35 1   -1.003  -48.907   28.456
36 1   -2.662  -47.853   25.286
37 1   -1.388  -50.782   21.544
38 1   -5.472  -46.790   24.891
39 1   -5.815  -47.803   21.039
40 1   42.386   18.719   15.661
41 1   -8.235  -47.081   19.007
42 1   39.803   20.367   10.948
43 1   39.076   17.109   14.164
44 1   38.090   19.494    7.657
45 1   40.320   16.233    7.616
46 1   39.124   14.395   11.269
47 1   44.287   17.110    6.992
48 1  -25.998   60.668    3.232
49 1  -29.069   59.271    6.157
50 1  -25.490   58.003    0.663
51 1  -25.030   55.023    2.932
52 1  -28.050   55.704    6.865
53 1  -25.143   52.165    1.767
54 1  -26.150   50.319    4.885
55 1  -29.902   52.658    6.090
56 1  -26.696   46.851    4.614
57 1  -29.165   46.680    7.818
58 1  -32.473   49.870    6.822
59 1  -29.757   43.476   10.068
60 1  -33.018   44.770   11.729
61 1  -35.789   47.977    8.736
62 1  -34.850   42.830   12.932
63 1  -35.711   41.700    9.778
64 1  -38.417   37.842   10.561
ITEM: TIMESTEP
6
ITEM: NUMBER OF ATOMS
64
ITEM: BOX BOUNDS pp pp pp
-28.84995460510254 56.66404724121094
-21.155569076538086 64.35842895507812
-0.3160229027271271 85.1979751586914
ITEM: ATOMS id type xu yu zu
1 1   23.009   22.090    4.612
2 1   20.194   19.459    2.550
3 1   26.623   22.251    3.592
4 1   27.195   24.572    6.937
5 1   25.998   21.495    9.607
6 1   29.923   26.562    8.276
7 1   28.665   26.413   11.719
8 1   29.060   22.503   12.054
9 1   25.826   27.950   12.141
10 1   26.943   30.789   14.683
11 1   29.045   32.318   11.611
12 1   24.756   32.723   15.605
13 1   27.233   35.991   16.276
14 1   28.114   36.110   12.031
15 1   25.685   38.638   17.720
16 1   29.037   41.170   16.931
17 1   28.747   40.017   12.594
18 1   28.926   44.514   17.691
19 1   31.848   45.170   15.237
20 1   29.729   43.928   12.284
21 1  -17.647  -20.227   19.661
22 1  -15.913  -21.156   16.354
23 1   32.077   46.514    9.817
24 1  -13.151  -18.622   14.806
25 1  -13.577  -20.843   10.945
26 1  -18.041  -19.503   11.275
27 1  -11.730  -18.958    7.878
28 1  -14.910  -19.550    5.149
29 1  -18.048  -17.505    7.781
30 1  -13.826  -17.780    1.839
31 1  -17.509  -17.756    0.844
32 1  -18.317  -15.578    4.432
33 1   28.785   50.609   26.290
34 1   29.351   50.738   30.366
35 1  -20.583  -15.273   29.283
36 1  -22.481  -14.776   25.646
37 1   25.301   51.004   21.792
38 1  -23.044  -11.154   24.885
39 1  -26.433  -11.733   23.218
40 1   26.461   52.438   15.408
41 1  -28.547   -9.201   21.806
42 1  -26.599   -8.877   18.666
43 1  -27.161  -13.505   17.218
44 1  -27.697   -6.724   16.156
45 1  -26.427   -8.961   13.228
46 1  -28.850  -12.656   13.987
47 1  -26.870   -7.928    9.828
48 1  -27.179  -11.593    8.128
49 1  -22.728  -13.178    7.476
50 1   22.626   53.963    4.552
51 1   23.691   51.554    2.349
52 1  -23.857  -16.629    8.173
53 1   22.378   48.565    2.082
54 1   25.689   46.807    0.783
55 1   28.110   47.501    4.438
56 1   25.588   43.483   -0.316
57 1   29.701   42.802    0.469
58 1   29.756   44.041    5.022
59 1   31.291   39.399   -0.147
60 1   33.984   39.668    2.640
61 1   31.365   41.176    6.675
62 1   35.919   36.828    3.552
63 1   32.725   34.445    4.152
64 1   33.909   32.043    8.031
ITEM: TIMESTEP
7
ITEM: NUMBER OF ATOMS
64
ITEM: BOX BOUNDS pp pp pp
-32.08900833129883 53.424991607666016
-42.337703704833984 43.17629623413086
-18.955177307128906 66.55882263183594
ITEM: ATOMS id type xu yu zu
1 1  -29.742   24.098   14.079
2 1  -26.601   24.637   16.613
3 1  -32.089   26.787   14.446
4 1  -28.927   29.432   14.372
5 1  -27.906   28.158   18.196
6 1  -29.593   32.334   13.708
7 1  -26.227   33.091   14.755
8 1  -26.697   32.105   18.547
9 1  -24.773   36.591   14.320
10 1  -27.188   38.698   16.814
11 1  -27.595   35.915   19.915
12 1   -4.520  -36.140   44.760
13 1   -7.067  -35.250   48.113
14 1  -28.475   38.962   22.193
15 1  -10.404  -33.791   47.890
16 1   64.008  -27.455   12.205
17 1   43.826   47.120  -14.744
18 1   60.372  -27.166   12.719
19 1   38.068   47.188  -14.084
20 1   41.072   46.224  -17.488
21 1   34.498   45.800  -14.529
22 1   56.334  -30.940    8.751
23 1   37.605   44.978  -18.955
24 1   53.467  -30.959    6.426
25 1   55.825  -29.984    3.035
26 1   58.880  -33.291    4.002
27 1   54.160  -29.830   -0.399
28 1   56.617  -31.344   -2.477
29 1   57.738  -34.446    0.080
30 1   56.180  -32.201   -5.436
31 1   58.454  -36.008   -5.326
32 1  -14.950  -42.338   36.323
33 1  -10.387   15.809   14.393
34 1   -8.685   19.827   15.545
35 1  -11.743   14.102   17.514
36 1   -9.862   17.089   19.526
37 1  -11.811   21.090   17.110
38 1  -10.560   17.455   22.770
39 1  -12.692   20.164   22.259
40 1  -10.212   23.291   19.684
41 1  -14.043   21.323   25.420
42 1  -16.406   24.157   23.903
43 1  -14.773   28.280   26.309
44 1  -19.889   24.224   23.703
45 1  -20.145   28.023   24.983
46 1  -23.576   29.099   22.813
47 1  -17.264   30.614   25.276
48 1  -20.133   33.120   26.815
49 1  -23.749   33.312   23.657
50 1  -19.405   36.532   28.651
51 1  -22.905   36.471   29.953
52 1  -25.843   35.008   26.216
53 1  -23.406   34.670   32.356
54 1   48.327   42.626   -6.532
55 1   46.824   43.746  -10.896
56 1   46.332   40.004   -4.706
57 1   43.073   41.716   -5.660
58 1   43.081   43.072  -10.412
59 1   40.102   40.271   -4.708
60 1   38.848   41.071   -7.930
61 1   41.746   39.737  -11.600
62 1   35.069   39.908   -8.271
63 1   34.968   41.593  -12.081
64 1   38.906   40.195  -14.116
ITEM: TIMESTEP
8
ITEM: NUMBER OF ATOMS
64
ITEM: BOX BOUNDS pp pp pp
-5.155317783355713 80.35868072509766
6.016411304473877 91.53041076660156
-8.155332565307617 77.3586654663086
ITEM: ATOMS id type xu yu zu
1 1   33.214   18.570   14.750
2 1   30.992   19.009   11.609
3 1   32.221   20.413   17.411
4 1   29.427   17.942   18.408
5 1   27.721   18.603   14.196
6 1   27.734   18.659   21.335
7 1   25.839   21.681   19.611
8 1   24.341   19.416   16.897
9 1   23.785   23.673   21.758
10 1   20.893   24.190   19.312
11 1   20.405   19.878   17.592
12 1   18.219   25.916   20.218
13 1   15.890   25.575   17.599
14 1   15.631   21.580   17.692
15 1   12.816   27.562   17.698
16 1   10.661   25.200   15.596
17 1   11.632   21.532   17.479
18 1   10.617   25.146   12.389
19 1   11.440   21.056   12.190
20 1    8.688   20.263   15.040
21 1   11.863   19.169    9.385
22 1   11.248   16.207   11.202
23 1    7.688   17.417   12.703
24 1   11.350   12.581    9.796
25 1    8.431   11.228   11.466
26 1    5.477   14.560   10.908
27 1    7.332    7.887   10.341
28 1    3.303    8.593   10.706
29 1    3.475   12.090    8.521
30 1    0.609    6.016   10.207
31 1   -2.333    8.240    9.202
32 1   -0.306   11.593    9.296
33 1   10.645   10.893   21.296
34 1   12.434   15.518   20.929
35 1    7.181   10.835   20.898
36 1    6.811   13.780   22.567
37 1    9.087   16.541   19.540
38 1    3.302   15.342   23.240
39 1    1.902   14.154   19.919
40 1    3.862   16.609   17.065
41 1   -1.889   13.728   19.171
42 1   -1.832   16.690   17.716
43 1    1.376   16.636   14.437
44 1   -5.012   18.166   16.537
45 1   -3.407   19.936   13.431
46 1   -0.974   17.166   11.572
47 1   -5.155   21.865   11.405
48 1   -2.836   21.032    7.960
49 1    0.897   19.028    8.802
50 1   -3.165   22.557    4.508
51 1   -1.612   19.831    2.995
52 1   -0.186   16.752    6.198
53 1   -4.024   18.335    0.202
54 1   -2.080   14.666    0.181
55 1    0.864   14.334    3.485
56 1   -0.521   13.447   -3.079
57 1    2.225   16.645   -3.768
58 1    4.787   16.087   -7.708
59 1    4.264   18.110   -1.110
60 1    7.934   18.078   -3.175
61 1    7.713   14.529   -6.266
62 1    9.810   21.314   -4.650
63 1   10.226   19.559   -8.155
64 1   11.207   14.967   -7.884
ITEM: TIMESTEP
9
ITEM: NUMBER OF ATOMS
64
ITEM: BOX BOUNDS pp pp pp
-25.715131759643555 59.798866271972656
-41.023887634277344 44.4901123046875
-4.990908145904541 80.5230941772461
ITEM: ATOMS id type xu yu zu
1 1   29.480   27.530   14.206
2 1   30.018   23.655   14.400
3 1   29.318   29.184   11.171
4 1   26.182   26.641    9.297
5 1   28.511   22.850    9.497
6 1   24.685   27.431    6.100
7 1   22.728   24.327    5.709
8 1   26.388   21.615    6.053
9 1   20.771   24.001    2.418
10 1   18.633   21.528    3.423
11 1   15.572   23.361    1.565
12 1   17.850   21.007    6.989
13 1   14.859   22.998    6.793
14 1   16.790   26.078    4.669
15 1   12.780   23.846    9.621
16 1   14.866   27.240    9.960
17 1   13.850   28.214    6.452
18 1   13.953   29.611   13.166
19 1   15.898   32.813   11.985
20 1   14.521   32.001    7.788
21 1   15.216   35.916   13.043
22 1   17.921   37.731   10.619
23 1   17.255   34.861    7.191
24 1   17.600   41.503   10.036
25 1   18.151   40.984    6.538
26 1   15.061   38.741    6.075
27 1    1.893  -37.626   24.126
28 1    0.102  -38.946   21.217
29 1   13.926   41.280    3.376
30 1   -0.186  -37.615   18.470
31 1   -1.250  -34.066   19.950
32 1   -3.459  -35.738   22.688
33 1  -25.715  -29.114   35.457
34 1   -9.569   50.233   19.483
35 1  -23.063  -26.985   36.105
36 1  -20.872  -29.839   36.029
37 1  -21.757  -32.039   32.245
38 1  -17.324  -29.386   36.052
39 1  -16.526  -32.399   34.777
40 1  -18.324  -31.848   30.808
41 1  -13.149  -33.124   34.324
42 1    3.767   44.869   11.636
43 1  -16.651  -34.170   28.396
44 1    2.498   41.526   12.267
45 1    1.609   40.697    8.413
46 1   -1.348   44.109    7.287
47 1    0.242   37.522    7.425
48 1    2.492   37.042    4.405
49 1    6.954   38.805    5.880
50 1    2.883   33.663    2.456
51 1    5.877   35.138    0.080
52 1    8.994   37.667    2.909
53 1    7.641   32.699   -1.968
54 1   10.418   34.986   -2.395
55 1   12.045   35.618    2.082
56 1   13.475   34.076   -4.991
57 1   16.465   36.595   -3.160
58 1   17.301   34.724    1.014
59 1   19.335   36.824   -4.820
60 1   21.300   37.962   -1.625
61 1   21.129   34.476    1.189
62 1   24.578   39.298   -1.872
63 1    7.578  -41.024   22.173
64 1   21.974   37.015    4.118
ITEM: TIMESTEP
10
ITEM: NUMBER OF ATOMS
64
ITEM: BOX BOUNDS pp pp pp
-23.25444793701172 62.259552001953125
-43.20118713378906 42.31281280517578
-1.4615013599395752 84.05249786376953
ITEM: ATOMS id type xu yu zu
1 1    5.008   16.074   12.730
2 1    4.618   19.980   12.111
3 1    7.227   14.856   14.983
4 1    5.667   17.230   17.625
5 1    6.437   20.559   15.673
6 1    7.438   17.146   21.035
7 1   11.113   18.546   19.811
8 1    9.882   21.044   17.442
9 1   13.439   19.818   22.254
10 1   16.444   20.986   19.398
11 1   13.723   22.361   16.577
12 1   18.478   23.375   20.576
13 1   20.438   24.181   17.042
14 1   17.059   23.373   14.333
15 1   23.128   21.954   15.705
16 1   23.198   22.693   12.280
17 1   19.230   21.979   11.246
18 1   25.966   21.371   10.368
19 1   24.366   17.799    8.872
20 1   20.391   19.087    9.021
21 1   25.719   16.579    5.939
22 1   22.689   14.823    4.756
23 1   20.974   18.225    3.752
24 1   22.717   12.357    1.763
25 1   18.508   11.767    2.412
26 1   17.318   15.485    0.751
27 1   17.320   10.548    5.464
28 1   17.917    6.364    5.314
29 1   15.801    5.201    9.066
30 1   17.235    4.488    2.595
31 1   18.532    1.531    4.605
32 1   15.136    1.325    7.738
33 1  -20.242  -43.201   38.485
34 1   12.388   27.795   14.683
35 1  -23.254  -42.177   39.870
36 1    9.965   31.732   18.913
37 1    9.957   27.010   17.379
38 1    7.989   32.047   21.557
39 1    5.068   30.880   19.677
40 1    6.074   26.780   17.600
41 1    2.599   32.890   18.203
42 1    0.500   29.625   17.154
43 1    3.314   26.309   15.355
44 1   -2.907   29.739   15.176
45 1   -3.558   25.648   14.923
46 1    0.410   23.753   13.526
47 1   -6.497   24.602   12.909
48 1   -4.610   25.206    9.194
49 1   -0.139   22.990    9.952
50 1   -6.582   24.000    6.482
51 1   -3.858   22.746    4.136
52 1   -0.877   20.670    7.283
53 1   -4.934   19.921    1.315
54 1   -0.991   18.679    0.780
55 1    1.207   18.955    4.310
56 1   -0.277   15.445   -1.018
57 1    3.413   15.147    0.071
58 1    4.478   19.594    1.789
59 1    5.750   13.653   -1.462
60 1    8.173   13.785    1.450
61 1    7.027   17.833    4.137
62 1   11.142   13.334    1.247
63 1   11.913   13.531    5.058
64 1    8.379   16.550    7.399
ITEM: TIMESTEP
11
ITEM: NUMBER OF ATOMS
64
ITEM: BOX BOUNDS pp pp pp
-20.98096466064453 64.53303527832031
-53.957489013671875 31.55651092529297
-13.938163757324219 71.57583618164062
ITEM: ATOMS id type xu yu zu
1 1   -6.777   57.307   44.600
2 1  -10.696   56.628   43.590
3 1   -5.387   55.600   47.800
4 1   24.206    4.619   -9.338
5 1   21.261    4.275  -12.294
6 1   23.854    3.095   -6.110
7 1   21.121    5.152   -5.056
8 1   18.977    5.998   -9.025
9 1   21.588    7.710   -2.712
10 1   18.175    8.765   -2.762
11 1   18.195    9.036   -6.633
12 1   17.395   12.085   -1.137
13 1   20.790   13.849   -3.369
14 1   19.735   12.576   -7.517
15 1   21.708   17.386   -2.842
16 1   25.402   17.044   -3.948
17 1   -9.779  -47.605   37.292
18 1   27.132   13.726   -3.813
19 1   25.872   12.848   -0.260
20 1   27.279   16.073    1.362
21 1   26.904   10.139    1.192
22 1   24.315   10.007    4.300
23 1   25.151   14.527    5.437
24 1   24.803    7.716    6.882
25 1   28.737    7.400    6.898
26 1   28.865   11.222    8.727
27 1   30.037    7.357    3.735
28 1   32.605   10.390    4.732
29 1   34.587    7.273    7.422
30 1   34.950   11.579    1.709
31 1   38.203   12.676    4.380
32 1    4.396  -53.957   39.838
33 1  -18.434  -47.877   22.066
34 1  -14.800  -50.158   24.922
35 1  -20.981  -46.469   24.110
36 1   13.393   17.490  -13.938
37 1   16.827   14.496  -12.223
38 1   10.658   17.017  -11.787
39 1   10.591   13.606  -12.661
40 1   14.401   12.218  -10.654
41 1    7.833   12.022  -11.110
42 1    9.374    8.318  -11.603
43 1   13.900    8.468  -10.439
44 1    7.854    5.336  -10.096
45 1   10.042    2.789  -11.997
46 1   13.980    4.996  -11.875
47 1   10.701   -0.850  -10.518
48 1  -19.328   50.080   46.755
49 1   15.983    1.905  -12.403
50 1  -17.895   47.066   46.625
51 1  -16.331   47.677   43.582
52 1  -14.997   52.070   44.399
53 1  -14.136   45.311   41.826
54 1  -13.558   47.969   38.781
55 1  -12.982   51.650   40.903
56 1  -11.607   47.559   35.735
57 1  -13.481   50.643   34.246
58 1  -12.688   53.990   38.157
59 1  -12.455   52.366   30.831
60 1   -8.426   51.342   31.166
61 1   -7.163   54.557   33.575
62 1   -7.593   48.043   32.383
63 1   -3.894   49.422   33.043
64 1   -4.251   53.024   35.888
ITEM: TIMESTEP
12
ITEM: NUMBER OF ATOMS
64
ITEM: BOX BOUNDS pp pp pp
-4.758187294006348 80.75581359863281
-5.535575866699219 79.97842407226562
-12.647599220275879 72.86640167236328
ITEM: ATOMS id type xu yu zu
1 1    4.033   62.228   53.734
2 1    2.553   58.507   54.884
3 1    2.142   64.569   53.796
4 1   -1.185   61.989   53.629
5 1   -0.452   60.216   56.889
6 1   -4.758   63.350   54.028
7 1   20.006   19.611  -12.648
8 1   23.647   21.276  -11.114
9 1   19.736   16.273  -12.301
10 1   17.594   15.945   -8.669
11 1   16.910   11.636   -9.394
12 1   19.348   17.121   -5.852
13 1   17.459   15.056   -3.300
14 1   17.176   11.012   -5.517
15 1   18.216   15.101    0.304
16 1   15.186   13.113    1.118
17 1   16.374    9.528   -1.525
18 1   14.556   11.780    4.687
19 1   11.313   10.257    3.876
20 1    9.866   12.698    7.211
21 1    9.382   11.126    0.577
22 1    6.589    9.255    1.845
23 1    6.414   11.334    5.521
24 1    6.503    5.374    1.918
25 1    3.545    4.559    4.310
26 1    4.866    7.891    6.715
27 1    2.785    1.414    5.183
28 1    2.682   -0.142    1.914
29 1    6.613   -0.778    1.791
30 1    0.221   -3.105    1.297
31 1    2.946   -5.536    0.305
32 1    3.588   -3.799   -3.715
33 1   11.474    9.596   21.179
34 1    8.452    5.983   23.177
35 1   11.140    9.307   18.048
36 1    7.798   11.271   18.441
37 1    8.176   14.283   14.819
38 1    4.423    9.447   19.216
39 1    2.553   11.927   17.036
40 1    5.084   12.157   13.404
41 1   -0.967   12.182   16.366
42 1   -0.648   14.241   13.398
43 1    2.802   11.903   10.451
44 1   -0.022   18.069   13.426
45 1   -0.001   18.484    9.356
46 1    2.684   15.125    8.342
47 1    1.207   21.846    8.024
48 1    3.421   20.572    5.388
49 1    5.755   16.969    7.425
50 1    5.956   23.265    4.234
51 1    7.536   23.178    8.108
52 1    8.691   18.795    8.618
53 1   10.357   25.742    9.536
54 1   11.707   23.639   12.673
55 1   10.702   18.964   11.502
56 1   14.932   24.073   14.062
57 1   16.253   20.212   14.186
58 1   14.013   17.661   10.417
59 1   16.578   18.301   17.088
60 1   16.571   14.907   15.433
61 1   13.121   14.684   12.135
62 1   16.663   12.129   17.201
63 1   17.562    9.812   15.061
64 1   14.310   10.992   11.519
ITEM: TIMESTEP
13
ITEM: NUMBER OF ATOMS
64
ITEM: BOX BOUNDS pp pp pp
-51.94160842895508 33.572391510009766
0.9955650568008423 86.50956726074219
-11.76336669921875 73.7506332397461
ITEM: ATOMS id type xu yu zu
1 1   29.346   34.286   19.311
2 1   27.210   31.267   18.226
3 1   30.096   33.800   22.380
4 1   29.532   29.709   21.816
5 1   25.366   30.472   21.751
6 1   30.420   26.900   23.935
7 1   32.003   25.078   20.964
8 1   29.972   21.245   21.227
9 1   32.784   26.509   17.567
10 1   32.677   23.002   16.254
11 1   35.866   21.758   19.130
12 1   33.336   22.728   13.146
13 1   29.647   22.518   12.275
14 1   29.908   25.266    8.885
15 1   27.952   19.949   11.897
16 1   25.408   21.430    9.000
17 1   28.600   20.820    5.912