ITEM: TIMESTEP
0
ITEM: NUMBER OF ATOMS
63
ITEM: BOX BOUNDS pp pp pp
-35.272499084472656 50.24150085449219
-42.31269836425781 43.20130157470703
9.133549690246582 94.64755249023438
ITEM: ATOMS id type xu yu zu
1 1  -32.487  -32.892   25.905
2 1  -30.744  -29.826   27.782
3 1  -30.667  -34.984   24.110
4 1  -32.520  -34.344   20.226
5 1  -28.710  -34.588   18.190
6 1  -35.272  -36.423   19.334
7 1  -33.768  -37.509   16.414
8 1  -30.399  -38.123   18.099
9 1  -35.160  -39.950   14.256
10 1  -31.668  -42.313   14.362
11 1  -31.110  -42.046   18.258
12 1  -32.283   39.731   13.435
13 1  -28.188   38.709   14.351
14 1  -26.795   42.714   13.903
15 1  -26.413   35.988   12.140
16 1  -24.387   33.983   15.072
17 1  -26.026   32.329   17.224
18 1  -23.114   32.146   19.846
19 1  -20.307   30.339   17.904
20 1  -23.318   31.709   23.441
21 1  -20.270   29.012   23.515
22 1  -17.524   31.193   20.909
23 1  -18.846   27.967   26.977
24 1  -15.629   26.469   25.932
25 1  -14.785   29.259   23.307
26 1  -12.858   26.538   28.464
27 1  -10.087   25.125   26.209
28 1  -11.099   28.045   22.925
29 1   -6.436   24.951   27.392
30 1   -5.203   24.505   23.619
31 1   -7.011   27.991   22.705
32 1  -15.605   12.401   22.449
33 1  -13.791   14.552   25.764
34 1  -18.926   13.397   22.005
35 1  -17.957   17.407   21.449
36 1  -14.330   18.099   25.005
37 1  -20.085   20.048   21.006
38 1  -19.485   20.591   16.752
39 1  -20.143   24.736   16.326
40 1  -16.021   19.325   15.054
41 1  -16.650   22.141   12.253
42 1  -17.311   25.832   14.433
43 1  -14.371   22.142   10.105
44 1  -13.291   25.681   10.640
45 1  -13.485   26.071   14.972
46 1  -10.100   26.983    9.134
47 1   -9.667   29.994   11.950
48 1  -10.672   28.296   16.329
49 1  -10.604   33.457   11.523
50 1   -8.648   34.747   14.671
51 1   -8.821   31.268   17.610
52 1   -8.842   38.087   16.047
53 1   -7.301   37.090   19.803
54 1   -9.416   33.349   20.700
55 1   -7.027   39.015   22.259
56 1  -10.920   39.444   21.862
57 1  -12.608   35.450   20.959
58 1  -12.778   41.564   24.546
59 1  -15.753   41.660   22.320
60 1  -15.903   37.067   21.247
61 1  -19.087   42.930   23.368
62 1  -20.435   41.771   20.073
63 1  -19.630   37.068   20.235
ITEM: TIMESTEP
1
ITEM: NUMBER OF ATOMS
63
ITEM: BOX BOUNDS pp pp pp
-29.554136276245117 55.959861755371094
-3.968231201171875 81.54576873779297
7.626275062561035 93.14027404785156
ITEM: ATOMS id type xu yu zu
1 1  -20.609    0.313   19.358
2 1  -20.811   -3.968   19.181
3 1  -22.971    1.659   21.680
4 1  -25.822    1.705   19.004
5 1  -23.045    4.048   16.878
6 1  -29.554    2.822   19.605
7 1  -29.332    5.875   17.164
8 1  -27.794    8.565   19.915
9 1  -27.567    5.558   13.919
10 1  -29.203    8.892   12.774
11 1  -26.948   10.988   15.935
12 1  -29.015   10.261    9.429
13 1  -27.336   13.335   10.664
14 1  -24.285   11.185   12.529
15 1  -26.271   15.829    8.467
16 1  -23.363   16.802   11.464
17 1  -23.172   19.882   12.716
18 1  -22.984   18.501   16.011
19 1  -21.352   21.554   18.202
20 1  -21.888   14.717   16.755
21 1  -21.637   15.031   20.425
22 1  -19.623   18.849   20.655
23 1  -20.290   12.180   22.663
24 1  -16.869   12.309   20.859
25 1  -16.397   16.288   21.166
26 1  -14.258   10.403   21.225
27 1  -12.065   11.833   18.588
28 1  -12.844   15.607   19.503
29 1   -8.186   10.789   17.893
30 1   -8.972    9.317   14.232
31 1  -12.438    8.491   15.300
32 1   -0.951   22.114   24.463
33 1   -3.746   25.566   25.509
34 1   -2.005   18.845   24.846
35 1   -5.112   19.799   27.275
36 1   -7.007   23.678   25.010
37 1   -7.499   17.437   27.842
38 1  -10.048   20.602   28.010
39 1  -12.399   19.324   24.096
40 1  -11.835   20.851   30.520
41 1  -14.825   23.324   28.864
42 1  -15.791   21.203   24.872
43 1  -18.022   23.540   31.071
44 1  -20.147   26.068   28.490
45 1  -19.703   23.524   24.005
46 1  -23.420   27.070   29.412
47 1  -25.019   27.975   25.902
48 1  -22.620   25.256   22.716
49 1  -25.982   30.804   24.943
50 1  -22.872   31.266   23.409
51 1  -21.788   27.882   20.184
52 1  -21.872   34.447   22.442
53 1  -18.659   33.136   19.568
54 1  -18.123   28.620   20.114
55 1  -18.439   34.262   16.210
56 1  -16.660   31.039   14.871
57 1  -19.165   27.539   16.409
58 1  -16.200   31.277   11.171
59 1  -16.937   27.160   11.042
60 1  -20.651   26.125   13.328
61 1  -16.919   25.588    7.626
62 1  -17.698   21.931    9.275
63 1  -13.733   20.497   11.401
ITEM: TIMESTEP
2
ITEM: NUMBER OF ATOMS
63
ITEM: BOX BOUNDS pp pp pp
-88.95881652832031 -3.4448165893554688
-31.85957908630371 53.6544189453125
-13.2899751663208 72.2240219116211
ITEM: ATOMS id type xu yu zu
1 1  -23.124  -25.572   20.952
2 1  -22.213  -28.773   18.799
3 1  -26.416  -25.577   22.305
4 1  -28.058  -25.483   18.944
5 1  -26.259  -28.829   18.092
6 1  -31.295  -25.184   18.635
7 1  -31.376  -26.794   15.253
8 1  -29.758  -30.214   16.740
9 1  -34.742  -27.238   13.448
10 1  -16.166   52.172   23.680
11 1  -14.960   50.096   27.356
12 1  -19.004   50.738   21.397
13 1  -17.428   46.819   21.509
14 1  -17.369   47.564   25.538
15 1  -19.088   44.573   20.045
16 1  -15.852   43.439   17.761
17 1  -12.366   43.824   18.971
18 1  -11.525   39.545   18.571
19 1  -12.871   40.176   14.554
20 1   -8.533   38.533   18.674
21 1   -9.321   35.739   16.468
22 1   -7.508   32.801   19.692
23 1   -7.940   35.350   12.980
24 1   -5.023   32.843   14.095
25 1   -7.327   30.781   16.274
26 1   -2.720   31.042   11.430
27 1   -3.073   27.847   12.939
28 1   -6.919   28.214   13.206
29 1   -1.668   24.448   11.659
30 1   -3.537   22.308   14.016
31 1   -6.967   24.171   13.144
32 1  -25.961   41.339   29.905
33 1  -21.431   41.674   28.049
34 1  -25.760   41.200   33.588
35 1  -21.681   41.069   33.620
36 1  -20.604   44.661   30.385
37 1  -19.967   41.356   36.479
38 1  -16.357   41.318   34.412
39 1  -16.860   44.712   30.986
40 1  -13.206   41.433   35.791
41 1  -11.366   40.651   32.440
42 1  -13.213   43.974   30.126
43 1   -7.489   40.639   32.011
44 1   -7.809   41.749   28.725
45 1  -10.352   46.214   29.185
46 1   -4.902   42.374   26.504
47 1   -6.538   44.782   24.218
48 1   -8.489   48.160   26.638
49 1   -4.482   46.646   21.433
50 1   -6.921   49.621   20.914
51 1   -6.964   51.274   25.151
52 1  -23.222  -30.597    6.685
53 1  -20.007  -29.818    8.590
54 1  -21.241  -30.017   13.023
55 1  -16.956  -31.423    8.085
56 1  -15.034  -30.409   11.651
57 1  -18.198  -30.869   14.891
58 1  -11.631  -31.860   12.584
59 1  -88.959  -10.746  -13.290
60 1  -16.284  -31.326   18.043
61 1  -86.695  -11.840  -10.620
62 1  -88.709   -9.552   -7.997
63 1  -15.053  -28.376   19.726
ITEM: TIMESTEP
3
ITEM: NUMBER OF ATOMS
63
ITEM: BOX BOUNDS pp pp pp
-33.5032958984375 52.010704040527344
-3.9910621643066406 81.52293395996094
6.64437198638916 92.15837097167969
ITEM: ATOMS id type xu yu zu
1 1  -23.752   -3.990   21.857
2 1  -26.919   -1.434   22.386
3 1  -21.994   -3.991   18.239
4 1  -24.351   -0.856   16.737
5 1  -24.484    1.248   20.635
6 1  -23.738    0.578   13.967
7 1  -25.605    3.582   14.612
8 1  -29.074    1.871   16.596
9 1  -26.085    6.293   12.003
10 1  -27.300    8.852   14.461
11 1  -24.489    7.961   17.367
12 1  -30.818    8.895   15.664
13 1  -30.983   13.140   16.154
14 1  -33.503   12.582   19.458
15 1  -32.227   15.427   13.484
16 1  -29.767   18.165   15.031
17 1  -26.947   16.829   17.398
18 1  -25.226   19.880   18.214
19 1  -28.125   21.575   16.425
20 1  -24.869   20.555   21.823
21 1  -21.621   18.663   22.137
22 1  -20.042   20.683   18.457
23 1  -20.070   18.833   24.989
24 1  -16.858   17.918   23.786
25 1  -16.963   20.672   21.139
26 1  -13.613   17.550   26.298
27 1  -11.561   18.471   23.338
28 1  -13.393   21.918   23.274
29 1   -7.989   18.209   23.495
30 1   -7.884   20.664   20.792
31 1   -9.723   23.285   22.833
32 1  -12.673   18.425   32.711
33 1   -9.732   21.064   30.039
34 1  -16.133   19.797   32.526
35 1  -15.104   23.486   32.578
36 1  -11.958   23.909   28.750
37 1  -17.631   26.006   32.393
38 1  -15.341   28.366   31.010
39 1  -14.176   26.439   26.898
40 1  -16.364   31.572   30.414
41 1  -13.830   32.426   26.989
42 1  -11.617   28.955   26.121
43 1  -15.179   34.149   24.199
44 1  -12.609   32.849   21.303
45 1  -12.248   28.684   22.369
46 1  -13.829   33.056   17.998
47 1  -11.877   30.150   16.994
48 1  -13.314   26.809   19.196
49 1  -12.358   29.052   13.454
50 1  -10.172   25.817   13.863
51 1  -12.554   23.703   17.326
52 1  -10.033   24.092   11.169
53 1  -11.198   20.360   12.166
54 1  -14.746   21.276   15.562
55 1  -11.701   17.518    9.780
56 1  -14.315   15.636   11.528
57 1  -16.956   18.680   13.978
58 1  -16.486   13.336    9.965
59 1  -19.444   15.729    8.792
60 1  -20.129   18.945   11.927
61 1  -22.392   14.243    7.461
62 1  -24.113   17.935    6.644
63 1  -22.565   20.882    9.903
ITEM: TIMESTEP
4
ITEM: NUMBER OF ATOMS
63
ITEM: BOX BOUNDS pp pp pp
-34.148441314697266 51.36555862426758
4.59085750579834 90.1048583984375
5.809985160827637 91.32398223876953
ITEM: ATOMS id type xu yu zu
1 1  -19.888   20.747   22.695
2 1  -17.072   22.299   19.952
3 1  -22.025   18.367   21.718
4 1  -23.339   20.464   18.741
5 1  -19.868   21.145   17.408
6 1  -25.477   19.007   16.678
7 1  -23.803   15.684   16.777
8 1  -20.074   17.341   16.117
9 1  -24.356   13.054   15.474
10 1  -21.921   11.397   18.636
11 1  -18.619   13.773   17.475
12 1  -21.415    8.183   18.996
13 1  -19.087    8.290   21.646
14 1  -17.340   12.285   20.925
15 1  -20.023    7.497   25.210
16 1  -22.926    5.397   24.042
17 1  -25.720    4.591   25.816
18 1  -26.547    8.501   27.036
19 1  -28.213    9.674   23.411
20 1  -28.592    8.997   29.890
21 1  -29.283   12.617   28.822
22 1  -31.288   11.294   25.200
23 1  -26.826   14.790   28.473
24 1  -28.924   18.314   28.923
25 1  -32.140   17.455   27.258
26 1  -27.788   21.685   28.700
27 1  -29.846   22.317   25.144
28 1  -29.863   18.489   24.269
29 1  -32.735   23.500   25.753
30 1  -34.148   22.650   22.068
31 1  -31.908   19.746   20.962
32 1   -8.603   14.216   26.933
33 1  -11.606   11.551   24.170
34 1   -6.755   16.299   25.202
35 1   -7.246   14.058   21.521
36 1  -11.551   14.008   21.041
37 1   -5.537   14.894   18.207
38 1   -7.947   12.249   15.991
39 1  -12.443   13.506   17.591
40 1   -7.596   12.439   12.893
41 1  -10.859   11.669   11.538
42 1  -13.388   14.119   14.067
43 1  -11.688   12.303    8.117
44 1  -12.752   16.200    8.637
45 1  -15.327   16.768   12.324
46 1  -14.257   18.588    5.810
47 1  -15.128   21.552    7.922
48 1  -16.817   20.177   12.102
49 1  -16.790   23.925    6.423
50 1  -16.291   26.245    9.720
51 1  -17.080   23.725   13.080
52 1  -17.730   29.536    9.836
53 1  -16.310   30.275   13.840
54 1  -17.306   26.685   16.118
55 1  -16.658   33.233   15.578
56 1  -13.648   31.956   17.964
57 1  -14.269   27.247   18.101
58 1  -12.257   33.365   20.316
59 1   -9.692   30.140   21.307
60 1  -11.887   26.259   20.547
61 1   -7.460   30.114   24.008
62 1   -5.826   26.737   22.516
63 1   -8.990   23.781   21.425
ITEM: TIMESTEP
5
ITEM: NUMBER OF ATOMS
63
ITEM: BOX BOUNDS pp pp pp
-51.186195373535156 34.32780456542969
-5.281388282775879 80.23261260986328
-0.7197391986846924 84.79425811767578
ITEM: ATOMS id type xu yu zu
1 1  -10.755   -1.570   15.600
2 1  -11.904    1.649   17.693
3 1  -13.535   -2.497   13.218
4 1  -15.780   -3.485   16.184
5 1  -15.637    0.600   18.131
6 1  -18.966   -4.867   15.813
7 1  -19.613   -4.788   19.868
8 1  -18.601   -0.569   20.411
9 1  -23.271   -5.281   21.178
10 1  -22.275   -4.496   24.257
11 1  -21.021   -0.970   23.372
12 1  -24.395   -4.830   27.037
13 1  -50.876   69.702    0.395
14 1  -19.687   -1.608   27.093
15 1  -51.186   70.471    3.800
16 1  -47.111   71.089    4.224
17 1  -45.459   72.323    7.494
18 1  -41.995   73.241    5.953
19 1  -43.627   75.600    3.319
20 1  -39.519   74.433    7.518
21 1  -37.359   74.251    4.735
22 1  -10.539    2.193   31.589
23 1  -33.840   75.446    5.233
24 1  -33.381   76.022    0.883
25 1   -6.839    3.863   29.904
26 1  -30.262   77.329   -0.720
27 1   -2.309    3.496   24.861
28 1   -5.471    5.346   26.493
29 1   -0.164    5.642   22.617
30 1   -3.118    7.015   20.068
31 1   -6.515    6.121   22.758
32 1  -20.634    8.311   29.009
33 1  -19.692    4.239   27.077
34 1  -24.243    9.275   28.890
35 1  -23.824    8.466   24.848
36 1  -22.541    4.508   24.750
37 1  -26.806    9.301   22.773
38 1  -25.355    8.187   19.622
39 1  -22.398    4.242   20.838
40 1  -24.064   10.354   17.722
41 1  -22.551    7.810   15.135
42 1  -19.807    4.856   18.001
43 1  -20.578    9.568   12.402
44 1  -17.705   10.653   14.494
45 1  -16.499    6.508   17.019
46 1  -14.626   12.358   13.033
47 1  -11.691   11.518   15.517
48 1  -12.808    7.395   16.525
49 1   -8.071   12.043   14.922
50 1   -7.789   14.485   17.805
51 1  -10.471   12.890   21.003
52 1   -4.827   15.652   18.725
53 1   -5.633   16.305   22.547
54 1   -7.787   11.772   23.254
55 1   -3.130   17.356   25.075
56 1   -4.931   15.638   28.247
57 1   -6.598   11.057   27.054
58 1   -3.737   15.531   31.199
59 1   -6.713   13.956   32.889
60 1   -7.186    9.635   30.476
61 1   -6.719   13.330   36.886
62 1   -9.558   10.988   36.853
63 1   -8.767    8.314   33.488
ITEM: TIMESTEP
6
ITEM: NUMBER OF ATOMS
63
ITEM: BOX BOUNDS pp pp pp
-49.58041763305664 35.9335823059082
-12.936376571655273 72.57762145996094
-47.89733123779297 37.616668701171875
ITEM: ATOMS id type xu yu zu
1 1  -23.866    5.401   12.243
2 1  -21.321    4.387    8.572
3 1  -25.508    2.989   13.872
4 1  -27.260    1.354   10.633
5 1  -23.705    1.197    8.641
6 1  -28.665   -1.737   11.317
7 1  -27.954   -2.675    7.440
8 1  -31.017    0.126    5.914
9 1  -28.984   -6.178    6.695
10 1  -31.109   -5.123    4.091
11 1  -33.502   -2.856    6.925
12 1  -32.335   -7.407    1.740
13 1  -35.267   -8.794    4.091
14 1  -33.725   -6.791    7.533
15 1  -38.564   -8.741    2.901
16 1  -38.626  -12.303    1.487
17 1  -36.208  -12.235   -1.120
18 1  -38.905  -12.936   -4.036
19 1  -41.455   -9.798   -2.702
20 1    5.073   23.713   56.328
21 1    1.266   24.762   55.068
22 1    1.347   28.290   57.618
23 1    0.490   25.084   51.973
24 1   -2.951   27.868   52.738
25 1   -0.480   30.293   54.715
26 1   -5.132   29.172   50.004
27 1   -6.026   32.599   51.499
28 1   -1.789   33.168   52.357
29 1   -7.569   35.287   49.339
30 1   -6.454   38.500   51.577
31 1   -2.747   37.027   51.951
32 1    6.362   28.988   48.377
33 1    3.800   31.562   50.742
34 1    6.948   30.192   45.016
35 1    6.050   34.077   45.687
36 1    2.823   34.311   48.622
37 1    6.131   36.536   43.476
38 1    6.166   38.774   46.511
39 1    2.482   37.726   49.606
40 1  -33.611    3.692  -16.186
41 1  -35.007    4.710  -12.624
42 1  -39.579    4.136  -12.622
43 1  -33.734    4.147   -9.253
44 1  -37.587    4.297   -7.643
45 1  -40.289    1.398   -9.971
46 1  -38.199    4.589   -4.079
47 1  -42.006    3.346   -4.349
48 1  -42.365   -0.076   -7.318
49 1  -43.908    3.220   -1.226
50 1  -46.542    0.813   -2.789
51 1  -44.372   -2.385   -5.386
52 1  -49.580   -0.650   -0.514
53 1   -7.534   33.333   61.113
54 1  -46.011   -5.384   -3.568
55 1  -10.579   30.955   61.786
56 1   -8.629   27.564   60.408
57 1   -4.469   28.142   61.980
58 1   15.518   86.402    8.195
59 1   16.727   86.451   11.765
60 1   14.215   90.183   13.737
61 1   16.394   83.007   13.730
62 1  -24.272   47.448  -47.675
63 1  -25.146   52.223  -47.897
ITEM: TIMESTEP
7
ITEM: NUMBER OF ATOMS
63
ITEM: BOX BOUNDS pp pp pp
-49.63016891479492 35.88383102416992
-15.793084144592285 69.72091674804688
-1.9109809398651123 83.60301971435547
ITEM: ATOMS id type xu yu zu
1 1  -22.159  -10.058    9.147
2 1  -19.480  -11.837   11.292
3 1  -24.476   -8.598   10.905
4 1  -25.027  -11.453   12.887
5 1  -21.572  -10.932   14.569
6 1  -27.777  -11.818   15.089
7 1  -25.237  -14.098   17.758
8 1  -22.847  -11.158   18.220
9 1  -26.423  -15.793   21.102
10 1  -36.955   64.540   -1.911
11 1  -21.820  -12.144   21.850
12 1  -36.827   63.495    1.613
13 1  -40.067   65.234    2.117
14 1  -23.972  -11.229   25.445
15 1  -42.239   65.221    5.573
16 1  -39.741   67.077    7.992
17 1  -40.451   67.783   11.568
18 1  -43.746   65.940   11.403
19 1  -42.029   63.049    8.867
20 1  -45.726   64.431   14.187
21 1  -47.254   61.533   12.115
22 1  -43.630   59.876   11.277
23 1  -49.630   62.066    9.690
24 1   31.545   76.803   24.554
25 1   31.707   75.269   20.657
26 1   28.502   76.367   26.538
27 1   25.800   77.589   23.419
28 1   27.912   76.128   19.833
29 1   22.033   76.997   23.736
30 1   21.291   80.886   22.479
31 1   21.048   82.470   26.486
32 1  -12.615   -9.903   17.328
33 1  -17.114   -9.912   18.723
34 1   -9.874  -11.544   19.909
35 1  -11.415   -9.017   23.091
36 1  -16.596   -9.230   22.324
37 1  -11.162   -9.572   26.757
38 1  -14.019   -7.177   27.862
39 1  -18.435   -8.592   25.494
40 1  -14.685   -6.163   31.594
41 1  -18.374   -5.054   31.422
42 1  -20.269   -7.379   28.324
43 1  -20.236   -4.805   34.040
44 1  -22.906   -3.253   32.039
45 1  -23.664   -6.178   28.838
46 1  -25.913   -2.259   33.571
47 1  -27.583   -0.836   30.210
48 1  -25.905   -3.735   27.375
49 1  -26.803    2.387   29.339
50 1  -23.210    1.779   27.894
51 1  -23.775   -1.612   24.933
52 1  -21.321    4.451   26.141
53 1  -18.675    2.155   24.196
54 1  -20.506   -2.503   23.529
55 1  -17.330    3.829   21.392
56 1  -16.223    0.731   19.545
57 1  -20.526   -1.896   19.838
58 1  -14.996    0.732   16.396
59 1  -17.394   -2.372   15.088
60 1  -21.348   -1.349   16.263
61 1  -17.026   -3.834   11.492
62 1  -20.817   -3.922   10.458
63 1  -22.787   -0.230   13.192
ITEM: TIMESTEP
8
ITEM: NUMBER OF ATOMS
63
ITEM: BOX BOUNDS pp pp pp
-65.2034683227539 20.310531616210938
-24.609947204589844 60.904052734375
5.811976432800293 91.32597351074219
ITEM: ATOMS id type xu yu zu
1 1    2.473  -24.144   26.948
2 1    0.612  -20.467   27.331
3 1    4.481  -24.610   24.063
4 1    6.012  -20.892   24.008
5 1  -65.203   21.405   11.689
6 1    8.285  -19.988   21.367
7 1  -63.185   25.238    7.278
8 1  -61.601   22.236   10.100
9 1  -60.613   27.568    5.812
10 1  -60.470   29.347    9.486
11 1  -60.041   25.975   11.511
12 1  -57.649   32.164    9.917
13 1  -55.043   29.397    9.140
14 1  -56.270   27.514   12.898
15 1  -51.531   30.724    8.773
16 1  -51.738   32.709   12.581
17 1  -54.855   33.584   13.910
18 1  -53.483   36.488   16.062
19 1  -51.922   38.703   12.313
20 1  -56.186   38.465   18.141
21 1  -54.118   41.592   18.766
22 1  -52.729   41.929   14.531
23 1   17.167    1.912   36.296
24 1   19.230    4.518   34.537
25 1   17.701    3.172   31.176
26 1   18.545    7.718   35.932
27 1   18.568    9.388   32.222
28 1   15.737    6.656   30.811
29 1   17.776   13.033   31.637
30 1   16.552   12.864   28.361
31 1   13.730    9.885   29.072
32 1    5.803   14.470   28.191
33 1    4.312   13.867   32.242
34 1    6.025   11.568   26.781
35 1    3.037    9.644   29.039
36 1    4.534   10.416   33.626
37 1    2.135    6.234   28.380
38 1    5.082    5.337   25.780
39 1    8.860    4.497   28.479
40 1    5.114    2.572   23.211
41 1    8.454    3.600   21.709
42 1   10.823    5.610   25.319
43 1   10.549    1.309   19.946
44 1   13.761    3.931   20.562
45 1   14.305    4.329   25.225
46 1   16.924    3.733   18.787
47 1   18.906    5.748   21.800
48 1   18.272    3.507   25.432
49 1   22.393    6.520   21.136
50 1   23.048    7.195   24.705
51 1  -50.794   45.590   10.433
52 1  -46.290   51.182   10.254
53 1  -44.227   47.217   11.004
54 1  -47.615   44.470   11.719
55 1  -42.212   46.058    8.771
56 1  -42.310   42.106    9.198
57 1  -46.996   41.110   10.106
58 1  -40.346   39.305    7.157
59 1  -42.329   36.191    9.173
60 1  -47.020   37.505    9.386
61 1  -41.871   32.494    7.935
62 1  -45.102   31.688    9.650
63 1  -48.205   34.284    7.251
ITEM: TIMESTEP
9
ITEM: NUMBER OF ATOMS
63
ITEM: BOX BOUNDS pp pp pp
-32.44388198852539 53.07011795043945
2.6679210662841797 88.18192291259766
4.861888885498047 90.37588500976562
ITEM: ATOMS id type xu yu zu
1 1  -17.586    2.668   14.207
2 1  -19.174    3.029   17.521
3 1  -19.537    3.134   11.238
4 1  -20.889    6.448   11.974
5 1  -22.114    5.458   16.151
6 1  -23.404    8.041    9.499
7 1  -25.004   10.223   12.078
8 1  -25.542    6.831   14.763
9 1  -27.637   12.098   11.675
10 1  -27.217   13.731   14.758
11 1  -27.710    9.917   16.540
12 1  -30.152   16.273   15.558
13 1  -27.738   17.885   18.095
14 1  -27.209   14.159   20.076
15 1  -29.232   20.539   20.458
16 1  -29.513   23.720   17.679
17 1  -28.460   23.480   13.988
18 1  -25.208   25.571   14.915
19 1  -24.015   22.829   18.031
20 1  -22.824   26.903   12.712
21 1  -19.707   26.371   15.055
22 1  -20.555   22.602   15.538
23 1  -16.840   27.297   13.772
24 1  -14.636   25.149   16.330
25 1  -16.835   21.209   15.659
26 1  -14.652   25.859   19.858
27 1  -11.795   23.123   20.509
28 1  -14.790   20.278   19.174
29 1  -10.899   21.990   23.919
30 1  -14.203   23.537   24.958
31 1  -16.264   21.277   22.839
32 1   29.037   64.423   36.305
33 1   29.805   65.716   40.707
34 1   31.124   66.246   33.910
35 1  -31.339   11.103   33.063
36 1  -32.444   12.984   37.009
37 1  -27.979   12.114   31.916
38 1  -28.679   16.250   32.251
39 1  -31.151   16.402   36.352
40 1  -26.637   18.681   31.792
41 1  -24.061   16.454   29.536
42 1  -22.201   19.006   26.883
43 1  -21.092   14.751   30.718
44 1  -20.337   12.938   27.375
45 1  -19.711   16.354   24.882
46 1  -17.331   10.861   27.354
47 1  -17.076   10.884   23.675
48 1  -17.124   15.408   22.211
49 1  -14.364    8.660   22.332
50 1  -14.510   10.319   18.263
51 1  -15.182   14.494   19.124
52 1  -11.872    9.814   15.937
53 1  -12.960   11.972   13.455
54 1  -14.940   15.276   15.511
55 1  -11.927   12.786    9.838
56 1  -15.496   13.592    8.656
57 1  -16.461   16.243   12.262
58 1  -16.289   15.651    5.769
59 1  -19.987   15.922    7.054
60 1  -19.693   17.542   11.107
61 1  -22.201   17.843    4.862
62 1  -25.140   16.941    7.872
63 1  -23.192   18.112   11.552
ITEM: TIMESTEP
10
ITEM: NUMBER OF ATOMS
63
ITEM: BOX BOUNDS pp pp pp
-33.03303527832031 52.48096466064453
-6.98884916305542 78.52515411376953
3.5626065731048584 89.07660675048828
ITEM: ATOMS id type xu yu zu
1 1  -29.956   -6.989   29.977
2 1  -33.033   -5.953   26.820
3 1  -26.737   -5.227   29.848
4 1  -25.926   -6.201   26.278
5 1  -29.865   -4.888   24.581
6 1  -22.860   -4.970   25.091
7 1  -24.408   -5.634   21.024
8 1  -27.956   -3.217   21.600
9 1  -22.291   -4.513   18.437
10 1  -24.889   -4.130   16.094
11 1  -26.220   -1.427   18.393
12 1  -24.172   -3.383   12.189
13 1  -25.230   -0.065   12.381
14 1  -28.786   -1.037   14.574
15 1  -26.035    1.611    9.837
16 1  -26.071    4.996   11.754
17 1  -26.723    7.702    9.783
18 1  -24.841   10.074   12.053
19 1  -22.618    6.705   14.058
20 1  -23.291   12.585   10.576
21 1  -20.667   13.145   13.044
22 1  -19.764    9.032   12.872
23 1  -18.053   15.611   12.333
24 1  -17.122   16.579   16.185
25 1  -16.063   20.359   14.847
26 1  -19.805   16.760   18.835
27 1  -18.090   19.199   21.015
28 1  -17.326   22.691   18.013
29 1  -15.529   18.110   23.447
30 1  -16.374   21.437   25.472
31 1  -16.102   24.100   21.557
32 1  -12.894   22.623    4.234
33 1  -14.648   20.554    7.837
34 1  -14.904   25.590    3.563
35 1  -18.307   24.680    5.824
36 1  -16.599   23.501    9.642
37 1  -21.257   26.986    5.996
38 1  -23.133   25.554    9.327
39 1  -19.289   24.306   11.921
40 1  -25.788   27.724   11.127
41 1  -23.031   29.781   13.197
42 1  -19.604   27.126   14.385
43 1  -23.964   32.547   15.531
44 1  -20.133   33.347   16.843
45 1  -17.889   28.877   17.149
46 1  -19.268   35.801   19.908
47 1  -15.868   34.742   20.365
48 1  -15.590   29.809   19.915
49 1  -13.479   36.142   22.942
50 1  -10.329   34.220   20.676
51 1  -11.954   29.944   20.293
52 1   -6.742   34.183   22.066
53 1   -7.792   35.086   25.577
54 1  -10.171   31.423   26.843
55 1   -5.144   35.800   28.260
56 1   -7.678   34.906   31.225
57 1   -9.011   30.099   30.289
58 1   -6.348   35.457   34.721
59 1   -6.890   32.264   36.055
60 1  -11.649   31.277   34.724
61 1   -5.851   31.568   38.984
62 1   -9.560   30.213   40.239
63 1  -11.184   28.179   36.432
ITEM: TIMESTEP
11
ITEM: NUMBER OF ATOMS
63
ITEM: BOX BOUNDS pp pp pp
-42.96315002441406 42.55084991455078
-11.892613410949707 73.62138366699219
3.9191460609436035 89.43314361572266
ITEM: ATOMS id type xu yu zu
1 1  -23.796    2.958   18.099
2 1  -25.643    6.383   17.529
3 1  -25.674    0.325   19.444
4 1  -23.367   -2.645   18.478
5 1  -22.009   -1.465   14.699
6 1  -24.349   -5.791   18.798
7 1  -21.046   -7.016   18.206
8 1  -21.390   -5.342   13.845
9 1  -20.392  -10.355   18.580
10 1  -24.027  -11.605   16.897
11 1  -23.896   -8.989   13.656
12 1   -3.756   66.392   34.360
13 1   -7.334   67.862   32.848
14 1  -26.915  -10.892   12.067
15 1   -9.872   65.699   31.794
16 1   -7.747   62.360   32.837
17 1   -8.535   59.513   31.352
18 1   -7.387   57.638   34.251
19 1   -3.824   60.317   34.800
20 1   -6.954   54.595   33.444
21 1   -7.457   52.989   36.829
22 1  -10.783   51.270   35.750
23 1   -5.083   51.224   38.233
24 1   -7.323   49.269   40.834
25 1  -10.190   48.182   38.030
26 1   -5.512   47.160   42.238
27 1   -8.839   44.980   43.578
28 1  -10.153   44.288   39.345
29 1   -8.378   42.102   45.530
30 1  -12.151   40.065   44.627
31 1  -11.083   40.663   40.490
32 1  -21.608  -11.893    3.988
33 1  -22.997   -9.560    7.601
34 1    3.065   67.908   22.641
35 1  -17.015   -9.608    5.432
36 1  -19.881   -7.852    8.591
37 1  -13.547   -9.117    6.635
38 1  -14.075   -5.337    6.472
39 1  -17.663   -4.894    9.135
40 1  -11.210   -3.030    7.223
41 1  -13.261   -0.248    9.275
42 1  -16.941   -1.910   11.448
43 1  -11.681    3.197   10.151
44 1  -13.590    4.021   13.046
45 1  -16.733    1.128   13.450
46 1  -14.591    7.505   13.896
47 1  -17.837    7.818   12.248
48 1  -19.353    3.340   12.146
49 1  -20.436   10.362   13.067
50 1  -23.644    8.255   11.018
51 1  -22.896    3.529   11.276
52 1  -26.755    9.086   11.964
53 1  -27.796    9.978    7.996
54 1  -26.929   14.587    7.614
55 1  -30.834    9.285    6.745
56 1  -32.819   12.124    8.516
57 1  -30.008   16.070    8.769
58 1  -35.240   11.155   11.043
59 1  -37.842    9.883    8.769
60 1  -36.450   11.439    3.919
61 1  -41.389   10.278    9.929
62 1  -42.960   11.566    6.145
63 1  -42.963   16.173    7.439
ITEM: TIMESTEP
12
ITEM: NUMBER OF ATOMS
63
ITEM: BOX BOUNDS pp pp pp
-40.5323486328125 44.981651306152344
-9.481951713562012 76.03205108642578
-0.918956995010376 84.59503936767578
ITEM: ATOMS id type xu yu zu
1 1  -33.847   -9.482   24.894
2 1  -30.254   -7.089   24.664
3 1  -36.132   -8.706   23.027
4 1  -35.362   -4.607   23.195
5 1  -31.448   -4.408   21.791
6 1  -37.744   -2.188   21.868
7 1  -35.067    1.215   22.122
8 1  -32.193   -1.054   19.639
9 1  -35.907    4.335   21.026
10 1  -32.008    5.604   20.423
11 1  -31.121    2.585   18.107
12 1  -31.001    8.821   19.069
13 1  -27.337    7.947   18.553
14 1  -28.094    4.540   15.991
15 1  -25.147   10.773   17.357
16 1  -26.181   10.059   13.386
17 1  -25.462   12.697   10.401
18 1  -22.737   14.472   12.547
19 1  -24.983   18.372   12.602
20 1  -21.668   13.130   15.704
21 1  -19.406   15.922   16.379
22 1  -22.568   18.810   15.734
23 1  -17.826   15.890   19.563
24 1  -15.163   18.571   19.061
25 1  -15.119   19.088   23.232
26 1  -15.233   21.559   16.913
27 1  -11.994   23.391   18.764
28 1  -12.699   22.095   22.360
29 1  -11.508   26.558   18.179
30 1   -7.982   26.262   19.725
31 1   -6.815   29.920   17.854
32 1   44.725   29.295    9.761
33 1  -35.946   43.731   24.730
34 1   41.832   26.846    9.509
35 1   41.416   27.982    6.008
36 1  -36.771   40.327   23.172
37 1   38.271   27.602    3.876
38 1   39.212   24.549    1.557
39 1  -38.816   37.354   21.893
40 1   37.506   21.860    1.494
41 1   40.211   20.062   -0.075
42 1  -38.713   33.642   22.435
43 1   39.868   16.154   -0.919
44 1  -40.532   27.758   21.374
45 1  -36.745   30.399   22.463
46 1  -39.322   24.080   21.196
47 1  -35.234   25.197   20.889
48 1  -35.045   28.308   24.851
49 1  -33.107   22.963   20.937
50 1  -30.147   25.666   21.977
51 1  -31.858   27.401   26.208
52 1  -26.493   24.331   22.521
53 1  -25.364   26.836   25.092
54 1  -28.627   26.979   27.949
55 1  -22.113   26.952   26.143
56 1  -22.330   24.675   29.579
57 1  -27.154   23.811   29.965
58 1  -20.460   21.283   29.720
59 1  -23.386   19.204   28.556
60 1  -27.116   20.162   31.169
61 1  -23.914   19.348   25.392
62 1  -27.675   20.174   25.970
63 1  -28.912   17.358   29.534
ITEM: TIMESTEP
13
ITEM: NUMBER OF ATOMS
63
ITEM: BOX BOUNDS pp pp pp
-59.33046340942383 26.183536529541016
-35.57278060913086 49.941219329833984
-11.365800857543945 74.14820098876953
ITEM: ATOMS id type xu yu zu
1 1  -20.859  -29.217   13.927
2 1  -17.169  -27.584   13.222
3 1  -20.795  -31.837   15.912
4 1  -17.933  -34.019   13.737
5 1  -17.128  -31.292   11.325
6 1  -15.184  -35.573   15.429
7 1  -59.330   33.947   26.364
8 1  -13.469  -32.938   10.321
9 1  -55.727   31.898   26.081
10 1  -54.392   35.275   24.385
11 1  -12.248  -35.155    7.128
12 1  -51.126   35.337   22.889
13 1  -52.087   38.800   20.469
14 1  -54.818   36.533   18.749
15 1  -49.790   41.008   18.071
16 1   -2.250  -28.100    6.438
17 1    0.294  -26.046    5.855
18 1  -42.966   44.287   23.834
19 1  -42.201   40.203   23.552
20 1    4.931  -24.657   10.119
21 1  -38.532   43.146   26.754
22 1  -38.483   41.061   23.302
23 1  -35.640   43.747   28.803
24 1  -35.735   47.095   27.493
25 1  -31.209   47.236   26.829
26 1    8.252  -21.346   14.638
27 1   11.219  -18.731   15.009
28 1   12.902  -20.033   11.565
29 1   10.897  -15.284   16.389
30 1   14.003  -13.900   14.017
31 1   12.540  -16.030   10.462