ITEM: TIMESTEP
0
ITEM: NUMBER OF ATOMS
63
ITEM: BOX BOUNDS pp pp pp
-42.07149887084961 43.442501068115234
-40.742401123046875 44.77159881591797
-7.410409927368164 78.10359191894531
ITEM: ATOMS id type xu yu zu
1 1  -33.860  -40.742   13.373
2 1  -31.126  -38.394   15.818
3 1  -32.056   42.386   11.136
4 1  -30.326   40.591   13.691
5 1  -33.852   39.539   15.932
6 1  -28.418   37.882   12.664
7 1  -29.086   36.376   16.472
8 1  -33.389   35.347   15.947
9 1  -27.379   33.743   18.078
10 1  -28.426   31.155   15.108
11 1  -26.296   29.057   13.886
12 1  -28.305   28.764   10.628
13 1  -30.705   26.558   12.543
14 1  -26.865   27.621    6.889
15 1  -28.541   23.992    7.486
16 1  -32.252   25.409    8.345
17 1  -28.143   21.058    5.292
18 1  -29.816   18.575    7.339
19 1  -33.361   20.608    7.399
20 1  -30.225   14.950    6.265
21 1  -33.997   14.633    8.609
22 1  -35.837   17.702    6.188
23 1  -35.739   11.422    8.659
24 1  -39.605   12.868    9.069
25 1  -39.436   15.584    5.446
26 1  -41.671   10.469    8.777
27 1   41.247   12.392    7.005
28 1  -42.071   13.058    3.615
29 1   37.893   11.024    6.215
30 1   37.649   13.024    2.525
31 1   40.272   15.508    3.194
32 1  -36.785    9.709   -3.868
33 1  -40.068   11.178   -7.410
34 1  -33.936   11.847   -3.658
35 1  -35.719   14.972   -4.219
36 1  -38.472   15.701   -0.277
37 1  -34.098   18.559   -5.407
38 1  -36.732   20.559   -3.991
39 1  -37.138   19.111    0.285
40 1  -36.520   24.252   -4.002
41 1  -39.239   24.307   -1.347
42 1  -37.526   22.348    2.043
43 1  -40.376   27.645    0.267
44 1   42.619   25.810    2.942
45 1  -40.741   21.511    3.835
46 1   41.363   27.643    5.968
47 1   41.954   24.157    8.157
48 1  -39.430   22.289    7.344
49 1   41.134   24.391   11.761
50 1  -41.936   21.565   12.931
51 1  -37.793   22.421   11.034
52 1  -41.676   20.671   16.193
53 1  -38.305   19.290   16.022
54 1  -35.918   23.054   14.052
55 1  -36.847   17.967   19.468
56 1  -33.625   17.758   18.205
57 1  -32.949   22.453   16.647
58 1  -31.080   16.399   20.690
59 1  -28.524   17.573   18.816
60 1  -29.291   22.020   17.290
61 1  -25.530   16.742   19.074
62 1  -23.996   19.839   16.765
63 1  -27.553   21.314   13.979
ITEM: TIMESTEP
1
ITEM: NUMBER OF ATOMS
63
ITEM: BOX BOUNDS pp pp pp
-37.453033447265625 48.06096649169922
0.8883565664291382 86.40235900878906
-4.249122619628906 81.26487731933594
ITEM: ATOMS id type xu yu zu
1 1  -32.614    0.888   21.041
2 1  -30.397    4.211   21.594
3 1  -35.429    1.513   18.961
4 1  -34.819    5.471   19.204
5 1  -30.748    5.149   17.747
6 1  -36.982    8.142   17.419
7 1  -33.971   11.138   18.000
8 1  -30.627    8.979   16.590
9 1  -34.413   14.207   16.805
10 1  -30.483   15.299   16.462
11 1  -29.618   18.559   15.732
12 1  -26.519   17.579   14.168
13 1  -26.814   20.377   10.685
14 1  -23.585   17.932   15.775
15 1  -23.323   21.864   16.293
16 1  -23.927   22.612   12.271
17 1  -20.567   23.280   17.417
18 1  -18.458   21.434   14.466
19 1  -20.188   23.087   11.011
20 1  -18.103   17.784   14.266
21 1  -15.700   17.855   11.308
22 1  -18.349   20.165    8.482
23 1  -13.886   14.688    9.745
24 1  -16.586   13.335    7.217
25 1  -19.116   16.923    6.394
26 1  -18.062   10.294    7.356
27 1  -18.843   10.247    3.625
28 1  -20.369   13.985    3.916
29 1  -21.339    7.457    1.946
30 1  -24.273    7.926    4.153
31 1  -24.176   11.631    3.922
32 1  -30.539   19.204   -0.107
33 1  -27.434   16.548    2.220
34 1  -29.102   22.112   -1.133
35 1  -25.580   20.729   -2.878
36 1  -23.970   18.018    1.080
37 1  -23.031   23.276   -3.266
38 1  -20.164   20.787   -3.202
39 1  -20.471   19.196    1.132
40 1  -16.635   21.688   -4.249
41 1  -15.883   24.034   -1.016
42 1  -18.037   21.610    2.694
43 1  -13.025   25.907   -0.274
44 1  -14.453   27.646    2.334
45 1  -16.953   24.677    4.786
46 1  -12.567   29.757    4.161
47 1  -16.204   30.735    5.749
48 1  -18.279   26.975    7.261
49 1  -17.010   33.791    7.938
50 1  -20.621   32.874    8.369
51 1  -21.100   28.633    8.797
52 1  -22.411   34.730   10.771
53 1  -25.747   32.609    9.855
54 1  -24.583   27.812    9.676
55 1  -29.039   33.432   11.344
56 1  -31.013   30.151    9.933
57 1  -27.933   26.258    9.981
58 1  -34.290   29.554   11.107
59 1  -34.730   26.739    8.276
60 1  -30.863   24.248    8.652
61 1  -37.453   24.894    7.947
62 1  -35.822   21.852    6.019
63 1  -31.231   22.725    5.255
ITEM: TIMESTEP
2
ITEM: NUMBER OF ATOMS
63
ITEM: BOX BOUNDS pp pp pp
-54.52831268310547 30.985687255859375
-1.6489118337631226 83.8650894165039
-11.230621337890625 74.28337860107422
ITEM: ATOMS id type xu yu zu
1 1  -42.779   51.697   37.775
2 1  -46.707   52.581   35.606
3 1  -43.180   51.988   41.053
4 1  -45.155   55.212   41.015
5 1  -48.339   53.704   39.243
6 1  -45.899   56.672   44.315
7 1  -49.844   57.492   43.167
8 1  -50.339   53.004   42.782
9 1  -50.173   59.972   40.354
10 1  -53.092   61.726   41.387
11 1  -19.317    8.412  -11.231
12 1  -22.165    6.755   -9.153
13 1  -52.428   59.726   48.300
14 1  -24.511    8.335   -7.131
15 1  -24.552    5.731   -4.412
16 1  -20.325    6.379   -4.107
17 1  -26.701    6.134   -1.664
18 1  -23.963    6.530    1.471
19 1  -20.854    8.848   -0.900
20 1  -25.376    8.285    4.310
21 1  -21.635    8.484    5.989
22 1  -20.727   11.626    3.157
23 1  -21.136    9.465    9.524
24 1  -17.367   11.481    8.903
25 1  -19.003   14.221    5.772
26 1  -15.449   12.648   11.259
27 1  -13.162   14.603    8.707
28 1  -16.501   17.058    6.995
29 1  -10.202   16.677   10.127
30 1  -12.693   20.151   10.256
31 1  -13.599   19.721    5.979
32 1  -24.760   15.935   -6.487
33 1  -22.833   14.015   -2.743
34 1  -28.208   16.475   -5.646
35 1  -27.767   18.392   -2.008
36 1  -24.071   15.778    0.225
37 1  -26.847   21.635   -1.937
38 1  -23.092   21.164   -2.470
39 1  -21.516   18.440    0.660
40 1  -20.388   23.962   -3.126
41 1  -17.122   22.125   -1.602
42 1  -18.154   20.008    1.989
43 1  -14.814   20.357   -4.018
44 1  -12.674   18.844   -1.224
45 1  -16.176   16.932    0.980
46 1  -10.379   16.563   -2.876
47 1  -10.538   14.367    0.309
48 1  -15.413   13.275    0.942
49 1   -8.391   11.410    0.411
50 1  -10.521    9.641    2.580
51 1  -14.839    9.578    0.094
52 1   -9.206    6.153    2.901
53 1  -13.083    4.839    3.411
54 1  -15.680    6.011   -0.448
55 1  -13.669    1.831    4.478
56 1  -17.392    1.558    3.174
57 1  -16.632    2.472   -1.746
58 1  -19.740   -1.495    3.876
59 1  -22.051   -1.210    0.387
60 1  -19.693    0.702   -2.549
61 1  -25.488   -0.670    0.238
62 1  -25.618   -1.649   -3.662
63 1  -54.528   54.460   50.221
ITEM: TIMESTEP
3
ITEM: NUMBER OF ATOMS
63
ITEM: BOX BOUNDS pp pp pp
-35.9736213684082 49.54037857055664
11.810073852539062 97.3240737915039
-13.065288543701172 72.44871520996094
ITEM: ATOMS id type xu yu zu
1 1  -30.284   26.808   28.213
2 1  -30.504   23.518   30.989
3 1  -30.230   25.850   24.765
4 1  -27.982   23.244   25.423
5 1  -30.686   20.760   27.629
6 1  -25.639   21.303   22.786
7 1  -24.701   18.730   25.246
8 1  -29.173   17.926   25.278
9 1  -22.427   16.257   24.434
10 1  -25.183   14.163   22.198
11 1  -24.505   12.923   19.353
12 1  -27.824   13.828   18.014
13 1  -26.825   17.721   17.049
14 1  -29.739   11.810   15.456
15 1  -31.063   14.457   13.303
16 1  -27.756   16.869   13.371
17 1  -32.372   13.716   10.109
18 1  -32.052   17.751    8.731
19 1  -27.486   17.737    9.669
20 1  -32.955   18.788    5.559
21 1  -30.229   21.768    5.042
22 1  -27.068   19.606    6.242
23 1  -30.107   23.490    1.826
24 1  -26.209   25.012    2.414
25 1  -24.688   21.158    3.545
26 1  -24.485   26.930   -0.449
27 1  -20.718   25.930    1.204
28 1  -22.064   21.461    0.500
29 1  -17.749   27.162   -0.368
30 1  -19.334   26.290   -4.167
31 1  -20.652   22.315   -3.255
32 1  -24.566   15.820  -12.157
33 1  -24.626   14.897   -7.305
34 1  -21.203   16.243  -13.065
35 1  -19.696   14.878   -9.975
36 1  -21.775   17.304   -6.552
37 1  -15.626   15.452   -9.356
38 1  -15.938   13.500   -5.819
39 1  -18.467   16.705   -4.062
40 1  -13.126   13.040   -3.462
41 1  -15.223   12.664   -0.147
42 1  -18.599   16.177   -0.574
43 1  -13.580   13.140    3.053
44 1  -16.319   13.332    5.357
45 1  -19.554   16.466    3.037
46 1  -15.623   14.560    9.059
47 1  -15.488   18.592    8.165
48 1  -19.239   19.460    5.657
49 1  -14.623   20.845   10.912
50 1  -17.768   23.890   10.015
51 1  -21.535   20.883    8.576
52 1  -18.722   26.111   12.398
53 1  -22.474   26.717   11.337
54 1  -23.982   22.386   11.105
55 1  -24.846   29.099   12.708
56 1  -27.899   26.934   11.462
57 1  -27.100   22.941   12.834
58 1  -31.021   27.833   11.935
59 1  -32.344   24.510   11.644
60 1  -30.353   22.439   14.810
61 1  -35.601   24.107   11.358
62 1  -35.974   20.452   13.240
63 1  -32.876   20.559   16.881
ITEM: TIMESTEP
4
ITEM: NUMBER OF ATOMS
63
ITEM: BOX BOUNDS pp pp pp
-37.94482421875 47.569175720214844
-29.101184844970703 56.41281509399414
-3.49285626411438 82.0211410522461
ITEM: ATOMS id type xu yu zu
1 1  -11.270  -26.261   33.792
2 1  -14.331  -23.193   34.471
3 1  -10.171  -28.551   36.722
4 1   -6.493  -28.699   35.331
5 1   -4.613  -25.857   37.537
6 1   -5.914  -29.101   31.816
7 1  -37.945   39.202   -1.308
8 1   -0.518  -27.822   35.061
9 1  -36.071   38.263   -3.493
10 1  -34.126   35.608   -0.693
11 1  -30.797   34.809   -0.940
12 1  -31.528   30.787    0.155
13 1  -29.291   30.608    3.147
14 1  -34.759   29.696    0.554
15 1  -33.628   26.241    0.027
16 1  -30.827   26.784    2.790
17 1  -35.608   23.387    0.818
18 1  -32.794   20.896    0.191
19 1  -30.536   22.822    2.648
20 1  -33.177   17.236    1.049
21 1  -29.535   16.739   -0.015
22 1  -28.051   19.672    2.488
23 1  -27.785   13.511    0.506
24 1  -24.041   14.941   -0.783
25 1  -24.498   18.202    1.591
26 1  -20.841   13.248   -0.337
27 1  -18.699   16.302   -2.202
28 1  -20.422   18.651    0.653
29 1  -14.872   16.132   -2.186
30 1  -14.687   14.582    1.493
31 1  -17.803   16.508    2.974
32 1  -19.273   29.400   -0.852
33 1  -19.762   24.931   -0.456
34 1  -19.553   30.805    2.317
35 1  -17.596   28.102    4.289
36 1  -19.743   24.095    3.154
37 1  -17.353   28.318    8.213
38 1  -16.815   24.148    9.123
39 1  -17.957   21.629    5.463
40 1  -17.877   22.594   12.445
41 1  -18.860   19.715   10.643
42 1  -21.477   21.420    7.461
43 1  -20.613   17.063   11.969
44 1  -24.229   19.017   12.359
45 1  -25.008   19.951    7.618
46 1  -26.842   17.453   13.552
47 1  -29.209   20.349   12.838
48 1  -28.369   21.544    8.128
49 1  -32.563   20.497   13.381
50 1  -31.927   24.570   13.289
51 1  -30.351   24.809    8.533
52 1  -34.677   26.895   13.949
53 1  -32.609   29.654   13.231
54 1  -30.921   28.888    8.828
55 1  -33.678   32.856   13.751
56 1  -30.379   34.594   12.798
57 1  -28.897   32.428    8.730
58 1  -30.485   38.012   13.277
59 1  -29.484   39.160    9.897
60 1  -27.028   35.738    7.797
61 1  -29.254   42.305    8.866
62 1  -25.463   41.915    9.000
63 1  -24.577   39.017    5.735
ITEM: TIMESTEP
5
ITEM: NUMBER OF ATOMS
63
ITEM: BOX BOUNDS pp pp pp
-55.35625076293945 30.15774917602539
-37.74950408935547 47.764495849609375
-13.611661911010742 71.90233612060547
ITEM: ATOMS id type xu yu zu
1 1  -48.481  -32.195   41.688
2 1  -52.213  -31.170   43.495
3 1  -47.953  -35.895   41.746
4 1  -23.308   42.722   28.839
5 1  -53.136  -35.075   44.058
6 1  -24.568   38.710   28.785
7 1  -26.734   38.974   25.970
8 1  -30.374   37.127   28.285
9 1  -27.034   41.888   23.882
10 1  -27.495   39.953   20.448
11 1  -26.398   41.830   17.480
12 1  -28.737   40.062   14.955
13 1  -55.356  -37.750   23.787
14 1  -29.456   36.745   14.817
15 1  -30.038   36.577   10.973
16 1  -26.998   34.437   10.500
17 1  -33.329   35.043   10.002
18 1  -32.106   33.358    6.956
19 1  -29.026   31.675    8.475
20 1  -34.193   31.927    5.111
21 1  -31.560   29.789    2.676
22 1  -29.112   28.615    5.992
23 1  -32.948   27.112    0.084
24 1  -28.961   25.216   -0.247
25 1  -28.163   25.739    3.470
26 1  -26.635   25.887   -2.424
27 1  -25.173   22.937   -1.609
28 1  -24.802   24.484    1.949
29 1  -22.097   21.742   -3.430
30 1  -21.419   24.204   -5.895
31 1  -16.931   24.189   -4.989
32 1  -17.402   13.621  -11.275
33 1  -14.658   16.225   -8.939
34 1  -15.213   11.300  -13.612
35 1  -11.822   10.917  -11.321
36 1  -11.253   16.013  -10.443
37 1  -12.422    8.496   -8.262
38 1   -9.206   10.443   -6.054
39 1  -10.251   15.112   -6.802
40 1   -8.988    9.413   -2.380
41 1   -7.775   12.647   -1.158
42 1  -10.773   15.744   -3.230
43 1   -7.691   12.859    2.958
44 1   -9.029   16.740    3.074
45 1  -13.482   16.239    1.733
46 1   -8.429   18.738    6.041
47 1  -12.129   20.699    5.354
48 1  -15.422   17.805    4.474
49 1  -12.624   23.404    7.537
50 1  -16.359   22.228    8.474
51 1  -18.893   24.860    5.908
52 1  -17.399   22.815   12.210
53 1  -20.776   20.913   11.359
54 1  -21.978   23.174    6.987
55 1  -23.478   20.442   13.715
56 1  -25.353   18.962   11.030
57 1  -25.551   22.662    7.904
58 1  -28.827   17.865   11.813
59 1  -30.575   21.012   12.287
60 1  -28.735   23.677    9.278
61 1  -34.071   21.678   13.084
62 1  -33.555   25.194   14.185
63 1  -29.600   26.456   11.426
ITEM: TIMESTEP
6
ITEM: NUMBER OF ATOMS
63
ITEM: BOX BOUNDS pp pp pp
-79.21217346191406 6.301826477050781
-62.384639739990234 23.12936019897461
-13.676152229309082 71.83784484863281
ITEM: ATOMS id type xu yu zu
1 1  -16.338  -62.385    9.195
2 1  -74.209   -5.380   19.453
3 1  -15.022  -61.195   11.980
4 1  -17.997   55.929    9.455
5 1  -72.556   -6.688   22.718
6 1  -73.451   -6.382   29.022
7 1  -15.889   51.405   12.709
8 1  -15.134   51.831    8.911
9 1  -13.126   49.757   14.992
10 1  -12.694   47.008   11.632
11 1  -14.531   43.866   11.427
12 1  -18.419   45.533   11.378
13 1  -18.387   46.576   15.306
14 1  -21.592   43.869    9.637
15 1  -22.477   41.410   12.601
16 1  -21.579   44.125   15.369
17 1  -25.954   40.027   12.757
18 1  -26.613   40.040   16.996
19 1  -25.249   43.914   17.023
20 1  -30.088   39.395   18.707
21 1  -29.305   41.990   21.606
22 1  -28.573   45.011   18.739
23 1   28.782  -16.234   12.050
24 1   30.872  -13.198   13.688
25 1   32.141  -12.134    9.885
26 1   28.945  -11.137   15.611
27 1   31.622   -7.866   14.903
28 1   31.244   -8.171   10.620
29 1   30.470   -4.855   16.627
30 1   34.346   -3.548   16.704
31 1   34.343   -1.366   12.578
32 1  -14.632  -56.989   -6.413
33 1  -73.981   -0.846    2.270
34 1  -77.597    0.069    8.132
35 1  -79.212   -1.852    5.024
36 1  -75.910   -4.034    2.792
37 1  -24.517   57.385  -10.338
38 1  -22.488   54.815  -12.901
39 1  -74.777   -7.089    4.738
40 1  -24.015   51.395  -13.532
41 1  -20.360   49.365  -13.581
42 1  -18.049   51.159   -9.553
43 1  -20.078   46.075  -13.676
44 1  -17.038   45.916  -11.407
45 1  -17.870   47.947   -7.769
46 1  -15.597   42.345  -10.560
47 1  -14.846   43.426   -6.326
48 1  -18.575   45.644   -4.815
49 1  -13.641   40.906   -4.162
50 1  -14.666   42.719   -0.526
51 1  -18.753   45.055   -1.125
52 1  -13.975   41.208    2.663
53 1  -10.859   44.055    3.115
54 1  -13.438   47.448    4.786
55 1   -7.816   43.758    5.270
56 1  -63.756  -14.340   21.066
57 1  -67.474  -12.170   21.736
58 1  -60.893  -13.095   22.203
59 1  -61.682   -9.016   22.061
60 1  -66.204   -8.949   22.606
61 1  -60.175   -6.857   23.517
62 1  -62.308   -3.861   22.097
63 1  -66.852   -5.524   21.511
ITEM: TIMESTEP
7
ITEM: NUMBER OF ATOMS
63
ITEM: BOX BOUNDS pp pp pp
-50.03231430053711 35.481685638427734
-12.297263145446777 73.21673583984375
-3.8465490341186523 81.66744995117188
ITEM: ATOMS id type xu yu zu
1 1  -45.711   -6.327   -1.360
2 1  -43.165   -4.417    1.339
3 1   -2.605   64.230    0.150
4 1  -50.032   -5.022    1.173
5 1  -46.785   -3.727    3.122
6 1   -7.554   67.088    2.982
7 1   -6.362   64.562    5.360
8 1  -48.482   -5.520    6.384
9 1   -8.634   63.381    7.766
10 1   -5.698   62.087   10.058
11 1   -5.371   58.574   10.874
12 1   -4.634   59.057   14.783
13 1   -8.561   60.661   16.044
14 1   -3.720   56.156   16.474
15 1   -3.341   54.092   12.542
16 1   -0.570   56.969   10.730
17 1   -2.312   51.036   12.046
18 1    1.419   51.794   12.509
19 1    1.191   53.525   16.165
20 1    3.551   49.192   12.292
21 1    6.229   50.512   15.033
22 1    3.159   50.206   17.496
23 1    9.480   48.428   15.941
24 1    7.388   44.994   16.998
25 1    3.400   46.354   16.388
26 1    8.124   41.942   15.843
27 1    4.588   39.976   16.835
28 1    6.591   37.093   19.185
29 1    1.329   41.325   17.551
30 1    0.086   38.825   20.703
31 1    2.844   36.275   20.051
32 1  -48.447    3.224   12.164
33 1  -47.443   -0.562    9.605
34 1  -49.838    5.527    9.935
35 1  -46.833    5.789    7.487
36 1  -45.926    1.021    6.609
37 1  -47.559    7.358    4.456
38 1  -43.667    6.131    3.051
39 1  -44.024    1.527    3.381
40 1  -42.466    7.191   -0.397
41 1  -39.071    4.638   -0.563
42 1  -40.781    1.051    1.390
43 1  -37.889    3.907   -3.716
44 1  -35.614    1.513   -2.100
45 1  -38.128   -1.500    0.355
46 1  -33.253   -0.227   -3.847
47 1  -32.673   -3.361   -0.830
48 1  -35.423   -2.243    2.781
49 1  -32.484   -6.929   -1.387
50 1  -33.936   -7.664    2.326
51 1  -37.462   -5.346    2.296
52 1  -34.852  -11.280    3.409
53 1  -36.534   -9.863    6.683
54 1  -39.576   -6.910    4.985
55 1  -38.334  -12.297    9.048
56 1  -39.837   -9.791   10.869
57 1  -41.341   -6.410    8.045
58 1  -38.683   -8.825   13.918
59 1  -41.458   -6.053   14.663
60 1  -44.018   -5.555   10.512
61 1  -43.577   -7.023   17.357
62 1  -46.375   -5.414   15.675
63 1  -46.793   -7.729   11.568
ITEM: TIMESTEP
8
ITEM: NUMBER OF ATOMS
63
ITEM: BOX BOUNDS pp pp pp
-53.77712631225586 31.736873626708984
-15.345163345336914 70.16883850097656
-36.7714958190918 48.74250411987305
ITEM: ATOMS id type xu yu zu
1 1  -20.659   38.029   32.930
2 1  -22.565   36.297   36.066
3 1  -20.896   36.476   30.149
4 1  -23.827   38.899   28.572
5 1  -26.571   37.914   31.819
6 1  -25.082   38.439   25.413
7 1  -27.692   40.896   25.613
8 1  -29.603   38.877   28.737
9 1  -29.909   41.917   22.909
10 1  -32.867   41.312   24.762
11 1  -35.817   41.522   23.485
12 1  -36.017   45.520   24.735
13 1  -33.437   46.673   21.284
14 1  -34.795   46.545   27.912
15 1  -37.005   50.134   27.717
16 1  -40.508   48.428   26.547
17 1   -8.165    6.919  -35.776
18 1  -11.832    8.606  -36.563
19 1  -13.537    4.926  -36.771
20 1  -13.122   10.778  -34.302
21 1  -16.714   10.674  -35.424
22 1  -16.995    6.837  -35.108
23 1  -19.659   12.924  -33.619
24 1  -18.862   11.443  -29.957
25 1  -18.029    7.632  -31.226
26 1  -16.409   13.083  -27.324
27 1  -15.483    9.797  -25.657
28 1  -14.538    8.032  -28.999
29 1  -12.648    9.964  -23.104
30 1  -11.264    6.147  -23.793
31 1  -11.047    7.074  -27.641
32 1  -18.495  -14.180  -20.176
33 1  -16.784   -9.460  -19.728
34 1  -17.431  -15.345  -23.451
35 1  -16.719  -11.677  -25.166
36 1  -14.303   -8.978  -22.465
37 1  -15.335  -11.580  -28.669
38 1  -12.283   -9.320  -27.532
39 1  -11.016  -10.774  -23.131
40 1  -38.190   35.665   36.537
41 1   -6.545  -10.380  -26.767
42 1  -37.863   31.768   42.333
43 1  -32.006   34.708   39.499
44 1  -31.512   31.342   42.154
45 1  -35.542   28.731   41.104
46 1   -2.076  -13.260  -20.625
47 1  -30.264   28.592   46.407
48 1  -33.958   26.133   44.572
49 1  -27.596   27.256   45.210
50 1  -28.955   23.458   45.301
51 1  -32.622   23.860   41.654
52 1  -26.869   21.013   44.405
53 1  -29.775   18.473   42.971
54 1  -31.613   21.128   39.330
55 1  -53.777   76.796  -11.644
56 1  -30.807   14.879   38.695
57 1  -29.822   19.381   36.698
58 1  -30.985   12.343   36.366
59 1  -31.260   15.099   33.238
60 1  -27.694   17.508   33.959
61 1  -31.435   14.191   29.675
62 1  -31.572   17.680   28.675
63 1  -27.799   19.453   30.369
ITEM: TIMESTEP
9
ITEM: NUMBER OF ATOMS
63
ITEM: BOX BOUNDS pp pp pp
-43.507781982421875 42.00621795654297
1.9506388902664185 87.46463775634766
-18.612844467163086 66.90115356445312
ITEM: ATOMS id type xu yu zu
1 1  -20.451   25.218    9.627
2 1  -22.805   22.298   10.641
3 1  -21.583   28.592    8.976
4 1  -23.748   27.777    6.308
5 1  -25.580   24.138    8.110
6 1  -25.616   30.358    5.079
7 1  -28.494   28.038    3.501
8 1  -28.829   25.821    6.527
9 1  -31.262   29.746    1.938
10 1  -32.942   26.331    1.487
11 1  -31.383   23.144    2.804
12 1  -32.165   21.056   -0.073
13 1  -31.731   23.705   -2.886
14 1  -30.610   17.805   -0.126
15 1  -30.859   16.917   -4.077
16 1  -32.700   20.324   -4.895
17 1  -27.766   16.264   -5.621
18 1  -29.110   17.322   -8.889
19 1  -32.974   15.140   -7.689
20 1  -27.640   16.477  -12.072
21 1  -30.586   17.524  -14.015
22 1  -33.329   15.680  -11.458
23 1  -30.857   20.831  -15.069
24 1  -33.788   20.104  -16.614
25 1  -35.569   18.860  -12.582
26 1  -35.976   22.813  -18.613
27 1  -39.377   20.708  -17.816
28 1  -39.073   20.842  -13.938
29 1   39.922   10.781   -0.892
30 1   37.503    8.560    2.051
31 1   39.140    4.937    1.199
32 1  -43.508   17.054    5.606
33 1   36.585    1.951   23.978
34 1  -40.213   15.996    6.205
35 1  -38.796   19.779    6.389
36 1  -34.224   19.162    5.274
37 1  -39.291   21.545    8.853
38 1  -36.345   19.741   10.965
39 1  -32.350   20.226    8.335
40 1  -35.719   20.382   14.122
41 1  -34.107   23.595   13.726
42 1  -30.565   22.490   10.984
43 1  -33.172   25.036   16.162
44 1  -30.909   21.873   17.165
45 1  -27.902   22.195   13.838
46 1  -29.359   21.976   20.322
47 1  -26.810   19.045   19.523
48 1  -25.571   19.747   15.442
49 1  -24.205   18.272   21.725
50 1  -21.726   16.568   19.404
51 1  -22.011   18.586   15.470
52 1  -18.126   16.939   20.394
53 1  -18.490   17.652   24.704
54 1  -21.684   20.087   26.137
55 1  -15.956   17.870   26.702
56 1  -17.530   18.235   29.931
57 1  -22.276   17.778   29.175
58 1  -17.282   21.239   31.682
59 1  -18.814   19.202   34.383
60 1  -23.199   19.218   32.575
61 1  -18.598   20.211   38.000
62 1  -21.542   18.369   39.568
63 1  -24.524   17.080   35.521
ITEM: TIMESTEP
10
ITEM: NUMBER OF ATOMS
63
ITEM: BOX BOUNDS pp pp pp
-54.58722686767578 30.926773071289062
-37.78668975830078 47.72731018066406
-39.43975830078125 46.074241638183594
ITEM: ATOMS id type xu yu zu
1 1  -14.839   10.882   46.152
2 1  -13.557   15.259   45.146
3 1  -12.289    8.058   46.709
4 1   -9.384   10.225   45.847
5 1  -10.744   14.183   47.947
6 1   -6.020    8.914   46.562
7 1   -4.093   11.937   45.387
8 1   -6.900   14.482   47.845
9 1   -0.285   12.039   46.186
10 1    0.070   16.102   46.373
11 1    3.486   17.893   47.159
12 1    4.100   16.626   51.066
13 1   -0.158   16.922   51.610
14 1  -22.758  -33.489   -7.479
15 1  -19.827  -36.393   -7.283
16 1  -17.344  -33.695   -8.103
17 1  -19.335  -37.787   -3.719
18 1  -16.690  -34.942   -2.292
19 1  -14.123  -34.893   -6.020
20 1  -14.959  -35.042    1.164
21 1  -14.300  -31.311    1.572
22 1  -10.696  -32.151   -1.120
23 1  -13.300  -30.171    4.757
24 1  -43.826   33.833  -35.876
25 1   -9.595  -33.909    2.325
26 1  -41.522   33.856  -32.858
27 1   -8.514  -29.624    8.752
28 1   -6.644  -29.816    4.938
29 1  -39.593   39.020  -30.285
30 1   -9.033  -24.948   11.149
31 1  -12.715  -27.259   10.549
32 1  -53.556   24.444  -28.673
33 1  -54.587   24.824  -33.234
34 1  -49.872   24.066  -27.766
35 1  -49.488   21.392  -30.204
36 1  -51.516   22.602  -33.941
37 1  -46.822   19.744  -30.642
38 1  -46.133   20.304  -34.438
39 1  -49.833   20.264  -36.243
40 1  -43.434   18.031  -36.105
41 1  -45.807   17.507  -39.440
42 1  -49.293   15.161  -37.979
43 1  -15.318   67.901   18.767
44 1  -19.053   67.894   16.763
45 1  -22.338   66.016   20.023
46 1  -19.498   66.328   13.718
47 1  -20.505   62.529   14.856
48 1  -24.195   63.509   18.054
49 1  -21.329   60.596   12.223
50 1  -23.404   57.796   14.460
51 1  -25.558   59.916   18.042
52 1  -25.495   55.142   12.761
53 1  -27.814   54.027   16.185
54 1  -28.595   57.984   18.842
55 1  -31.248   51.939   15.792
56 1  -31.964   51.978   19.591
57 1  -31.649   56.634   20.862
58 1  -34.848   50.325   20.455
59 1  -35.653   52.636   23.592
60 1  -35.149   56.889   22.294
61 1  -38.788   51.909   25.684
62 1  -41.485   54.808   23.989
63 1  -38.841   57.320   20.733
ITEM: TIMESTEP
11
ITEM: NUMBER OF ATOMS
63
ITEM: BOX BOUNDS pp pp pp
-69.79826354980469 15.715736389160156
0.660659670829773 86.1746597290039
-31.854408264160156 53.65959167480469
ITEM: ATOMS id type xu yu zu
1 1   -2.498   31.544   27.913
2 1   -6.485   30.054   27.218
3 1   -0.129   29.116   29.165
4 1   -2.650   27.918   32.218
5 1   -5.701   26.735   29.133
6 1  -64.253   51.081  -17.807
7 1  -63.288   48.220  -20.121
8 1   -3.496   23.301   29.098
9 1  -62.904   44.568  -18.590
10 1  -66.929   43.168  -19.454
11 1  -67.309   39.812  -19.826
12 1   -7.461   14.620   29.881
13 1   -7.049   10.209   28.771
14 1   -7.429   16.804   27.349
15 1  -10.651   15.366   25.772
16 1   -9.567   10.876   25.261
17 1  -12.611   16.772   22.666
18 1  -10.318   19.171   21.724
19 1   -7.605   16.350   20.798
20 1  -11.119   21.419   18.837
21 1   -7.087   21.694   17.687
22 1   -6.810   17.702   17.240
23 1   -6.174   23.390   15.096
24 1   -2.648   21.648   13.971
25 1   -3.738   19.841   10.700
26 1    0.397   23.244   14.297
27 1    2.146   20.704   11.656
28 1   -0.856   21.514    8.351
29 1    5.945   21.044   10.850
30 1    5.561   19.758    7.131
31 1    2.292   22.560    6.185
32 1  -67.055   25.705  -18.065
33 1  -69.798   21.883  -18.316
34 1  -63.752   24.675  -17.189
35 1  -62.679   27.162  -20.322
36 1  -66.486   30.701  -20.293
37 1  -59.110   28.823  -20.714
38 1  -60.472   31.279  -23.993
39 1  -64.833   32.257  -23.382
40 1  -58.739   33.705  -25.925
41 1  -60.812   32.594  -28.659
42 1  -64.973   33.003  -26.891
43 1  -61.168   34.383  -31.854
44 1   -1.399    6.909   19.489
45 1   -4.741    8.315   22.864
46 1   -2.482    7.948   16.409
47 1   -6.169    6.561   16.449
48 1   -7.737    7.423   20.875
49 1   -8.861    7.419   13.887
50 1  -11.689    5.928   15.624
51 1  -11.385    7.589   20.385
52 1  -15.213    6.524   13.773
53 1  -17.649    5.396   17.065
54 1  -15.236    7.045   20.806
55 1  -21.250    5.457   17.018
56 1  -21.494    3.691   20.082
57 1  -25.149    0.661   19.025
58 1  -22.575    5.449   23.366
59 1  -26.123    6.706   22.212
60 1  -27.778    2.965   19.847
61 1  -28.014    7.697   24.501
62 1  -31.784    7.449   22.259
63 1  -31.429    3.712   19.679
ITEM: TIMESTEP
12
ITEM: NUMBER OF ATOMS
63
ITEM: BOX BOUNDS pp pp pp
-38.30228042602539 47.21171951293945
8.181173324584961 93.69517517089844
-19.263696670532227 66.25030517578125
ITEM: ATOMS id type xu yu zu
1 1  -29.765   29.536   15.493
2 1  -30.013   29.272   11.528
3 1  -32.613   30.081   17.361
4 1  -34.477   26.646   15.936
5 1  -31.679   24.272   17.589
6 1  -35.503   26.420   12.298
7 1  -32.880   23.501   11.557
8 1  -33.619   21.706   15.303
9 1  -33.722   21.063    8.617
10 1  -31.046   18.100    9.946
11 1  -30.216   15.382    7.360
12 1  -28.893   12.945    9.737
13 1  -30.029   10.022    7.532
14 1  -29.796   12.312   13.567
15 1  -26.051   10.927   14.714
16 1  -23.726   13.974   12.691
17 1  -25.395   10.413   17.764
18 1  -21.372   10.001   17.115
19 1  -20.257   13.383   14.682
20 1  -19.548    9.118   19.446
21 1  -16.313    9.407   17.424
22 1  -16.808   13.229   16.654
23 1  -12.692    8.181   18.298
24 1  -11.211   10.411   15.996
25 1  -12.807   14.476   17.536
26 1   -7.660   10.089   15.053
27 1   -7.652   13.742   14.695
28 1   -8.975   14.249   18.373
29 1   -4.866   15.164   13.143
30 1   -2.345   14.436   15.791
31 1   -5.022   13.476   18.544
32 1  -38.302   25.435  -16.923
33 1  -34.618   24.079  -19.264
34 1  -37.825   28.133  -14.748
35 1  -35.064   26.984  -12.460
36 1  -31.322   27.080  -14.934
37 1  -34.521   28.349   -9.740
38 1  -34.889   25.662   -7.968
39 1  -31.969   23.011   -9.640
40 1  -34.530   25.651   -4.486
41 1  -32.283   22.356   -4.718
42 1  -28.345   22.913   -7.290
43 1  -31.480   20.980   -1.902
44 1  -27.648   19.964   -3.017
45 1  -26.095   24.100   -4.256
46 1  -25.690   18.119   -0.969
47 1  -26.263   20.092    2.239
48 1  -25.528   16.981    5.605
49 1  -24.134   22.773    2.997
50 1  -25.437   22.952    6.591
51 1  -24.335   18.845    8.732
52 1  -24.457   25.656    8.030
53 1  -25.131   24.272   11.942
54 1  -23.697   19.922   12.103
55 1  -23.537   26.495   14.845
56 1  -22.298   23.365   17.159
57 1  -21.452   19.255   14.841
58 1  -20.238   23.859   19.977
59 1  -17.002   23.075   17.503
60 1  -17.799   18.854   15.321
61 1  -14.171   22.986   18.827
62 1  -15.257   22.430   22.642
63 1  -16.189   26.648   24.397
ITEM: TIMESTEP
13
ITEM: NUMBER OF ATOMS
63
ITEM: BOX BOUNDS pp pp pp
-38.61185836791992 46.90214157104492
8.01607894897461 93.53007507324219
-21.000694274902344 64.5133056640625
ITEM: ATOMS id type xu yu zu
1 1  -21.305   24.330   31.438
2 1  -18.908   26.594   29.171
3 1  -24.637   23.236   30.106
4 1  -25.600   26.820   29.027
5 1  -22.089   27.910   27.245
6 1  -28.640   27.441   27.033
7 1  -27.773   30.149   24.408
8 1  -24.448   31.240   26.429
9 1  -30.284   32.670   23.363
10 1  -28.220   33.237   19.926
11 1  -27.937   30.424   18.130
12 1  -24.317   31.743   16.369
13 1  -23.052   27.945   16.965
14 1  -24.614   32.210   13.332
15 1  -21.656   30.272   12.418
16 1  -23.723   26.555   12.832
17 1  -20.339   30.756    9.182
18 1  -17.491   27.895    9.542
19 1  -20.046   25.201   11.284
20 1  -15.966   26.867    6.969
21 1  -14.335   23.366    8.878
22 1  -17.853   21.931   10.656
23 1  -12.888   21.208    6.903
24 1  -12.426   18.381    9.261
25 1  -16.078   18.158   10.682
26 1  -11.047   15.214    8.090
27 1  -10.073   14.497   11.443
28 1  -13.880   15.818   13.033
29 1   -8.181   11.850   12.201
30 1   -9.405   12.043   15.581