ITEM: TIMESTEP
0
ITEM: NUMBER OF ATOMS
63
ITEM: BOX BOUNDS pp pp pp
7.078400135040283 92.59239959716797
-0.6318510174751282 84.88214874267578
-8.41703987121582 77.09696197509766
ITEM: ATOMS id type xu yu zu
1 1   17.219    6.943   -7.877
2 1   14.433    9.719   -6.321
3 1   20.370    7.794   -8.417
4 1   20.782   10.894   -5.696
5 1   17.281    9.682   -3.353
6 1   23.928   11.870   -3.620
7 1   21.791   14.538   -1.248
8 1   19.407   11.492    0.164
9 1   23.628   16.527    1.075
10 1   20.534   17.258    3.345
11 1   18.359   13.079    3.937
12 1   21.037   19.228    6.383
13 1   18.251   17.141    8.228
14 1   20.234   13.252    7.016
15 1   17.709   17.798   11.327
16 1   16.389   14.319   12.044
17 1   15.006   13.537   15.161
18 1   16.646    9.515   14.907
19 1   20.763   11.049   13.777
20 1   16.596    7.783   17.422
21 1   19.460    5.528   16.399
22 1   23.119    8.020   15.699
23 1   20.331    3.115   18.270
24 1   23.663    2.669   16.820
25 1   25.147    6.073   18.052
26 1   25.477   -0.207   18.180
27 1   28.892    1.121   17.101
28 1   28.550    4.486   19.776
29 1   31.604   -0.632   17.052
30 1   33.889    2.545   17.862
31 1   32.188    4.228   21.497
32 1   31.495   13.806   25.188
33 1   30.624    9.186   23.525
34 1   31.739   16.037   22.422
35 1   33.671   13.510   19.533
36 1   30.762    9.634   19.647
37 1   34.396   14.691   15.885
38 1   33.494   11.059   13.942
39 1   29.501    9.808   16.228
40 1   33.407   10.852   10.721
41 1   31.169    8.035   10.587
42 1   27.918    9.950   12.875
43 1   30.582    6.407    7.435
44 1   27.100    5.142    8.750
45 1   24.728    8.707   10.042
46 1   25.242    3.314    6.273
47 1   21.936    3.480    8.113
48 1   21.723    7.300    8.156
49 1   18.929    1.637    6.703
50 1   16.751    4.203    7.497
51 1   18.359    7.893    5.789
52 1   12.729    3.604    8.184
53 1   12.225    7.646    7.026
54 1   15.205    7.132    3.838
55 1    8.819    8.466    6.024
56 1    9.628   11.616    4.370
57 1   13.736   10.566    1.703
58 1    7.078   12.957    2.000
59 1    9.691   15.079    0.784
60 1   12.766   12.464   -1.422
61 1   11.057   17.732    2.092
62 1   13.309   18.663   -0.953
63 1   13.224   14.828   -4.136
ITEM: TIMESTEP
1
ITEM: NUMBER OF ATOMS
63
ITEM: BOX BOUNDS pp pp pp
-23.872600555419922 61.64139938354492
-41.32640075683594 44.187599182128906
-41.55809783935547 43.955902099609375
ITEM: ATOMS id type xu yu zu
1 1   22.239  -14.688  -29.953
2 1   20.098  -14.778  -25.980
3 1   20.899  -16.490  -32.686
4 1   20.138  -19.414  -30.537
5 1   17.630  -17.404  -27.449
6 1   18.613  -21.882  -32.087
7 1   16.273  -22.465  -29.256
8 1   14.694  -18.681  -29.470
9 1   13.659  -25.104  -29.846
10 1   11.236  -23.895  -26.977
11 1   10.562  -19.806  -28.947
12 1    8.112  -25.269  -26.383
13 1    7.432  -25.329  -30.083
14 1    7.045  -20.977  -29.744
15 1    4.893  -27.144  -31.663
16 1    2.623  -28.131  -28.523
17 1   -0.367  -29.902  -28.609
18 1   -0.115  -31.397  -32.326
19 1   -1.447  -27.779  -34.037
20 1   -1.958  -34.439  -33.010
21 1    1.070  -35.746  -35.991
22 1    0.910  -32.340  -39.404
23 1    1.064  -38.762  -37.662
24 1    4.774  -38.417  -39.053
25 1    3.205  -34.623  -41.097
26 1    6.218  -40.880  -41.558
27 1    4.282  -39.843   40.247
28 1    4.630  -35.756   40.459
29 1    5.632  -41.326   37.218
30 1    4.790  -38.364   35.402
31 1    6.801  -35.799   37.196
32 1  -12.428   31.596   -0.567
33 1   -9.933   28.909    1.900
34 1  -10.532   32.193   -3.866
35 1   -7.620   29.418   -2.957
36 1   -9.670   25.960   -0.346
37 1   -5.353   28.265   -5.746
38 1   -4.155   24.993   -3.586
39 1   -7.319   23.085   -1.356
40 1   -2.325   22.519   -4.837
41 1   -2.653   19.972   -2.240
42 1   -6.784   19.459   -2.701
43 1   -0.714   17.056   -2.020
44 1   -4.473   14.552   -1.449
45 1   -6.773   17.311    1.279
46 1   -4.409   11.486   -0.674
47 1   -7.785   11.954    2.127
48 1  -10.241   12.406   -1.054
49 1   -8.493    9.671    4.307
50 1  -10.162   12.250    7.189
51 1   -7.080   16.077    8.105
52 1  -11.315   10.780    9.817
53 1  -13.299   13.359   11.214
54 1  -10.040   16.302   10.338
55 1  -14.474   13.258   14.195
56 1  -17.029   16.208   13.459
57 1  -21.116   14.995   15.976
58 1  -16.111   19.721   14.064
59 1  -19.863   20.872   14.461
60 1  -21.373   17.962   18.272
61 1  -20.634   24.408   15.092
62 1  -23.873   22.771   16.708
63 1  -22.140   20.829   20.573
ITEM: TIMESTEP
2
ITEM: NUMBER OF ATOMS
63
ITEM: BOX BOUNDS pp pp pp
-21.28619956970215 64.22779846191406
-42.07339859008789 43.44060134887695
-41.33049774169922 44.183502197265625
ITEM: ATOMS id type xu yu zu
1 1  -13.389  -37.615   -2.779
2 1  -15.114  -40.882   -5.190
3 1  -10.365  -38.456   -1.133
4 1   -8.371  -39.260   -4.782
5 1  -11.369  -42.073   -6.057
6 1   -5.131  -40.572   -4.785
7 1   -4.013  -38.643   -7.767
8 1   -7.631  -40.267  -10.064
9 1   -0.549  -38.998   -9.258
10 1   -0.386   42.936   -7.373
11 1   -0.721   43.639   -2.883
12 1    2.036   40.402   -8.112
13 1    4.880   42.765   -5.857
14 1    2.610   42.296   -2.516
15 1    5.370  -39.030   -7.037
16 1    8.043  -38.719   -4.681
17 1    9.431  -35.287   -4.344
18 1   12.957  -36.917   -2.741
19 1   11.650  -40.849   -2.558
20 1   16.219  -36.574   -4.191
21 1   17.479  -39.542   -2.342
22 1   14.794   42.727   -4.865
23 1   20.821  -40.169   -2.346
24 1   20.511   41.652   -1.465
25 1   18.278   41.341   -4.997
26 1   23.887   39.604   -1.000
27 1   22.413   36.400   -1.924
28 1   20.704   37.741   -5.915
29 1   24.638   33.212   -1.875
30 1   22.768   31.300   -4.582
31 1   22.037   34.357   -7.196
32 1  -21.080  -36.311  -34.894
33 1  -21.286  -31.509  -33.108
34 1  -19.422  -38.488  -32.508
35 1  -16.497  -36.538  -32.482
36 1  -17.892  -31.859  -31.955
37 1  -13.965  -37.188  -30.469
38 1  -11.774  -33.749  -31.340
39 1  -15.084  -30.198  -30.326
40 1   -8.520  -33.058  -29.976
41 1   -8.598  -28.585  -29.862
42 1  -12.147  -28.236  -32.061
43 1   -5.624  -27.039  -31.578
44 1   -6.892  -27.012  -35.485
45 1  -11.071  -25.552  -35.631
46 1   -5.239  -25.907  -38.274
47 1   -8.121  -23.206  -39.206
48 1   -9.179  -22.228  -35.389
49 1   -7.450  -20.440  -40.729
50 1  -11.228  -18.663  -39.957
51 1  -11.231  -18.339  -35.748
52 1  -12.513  -15.311  -41.330
53 1  -15.295  -14.724  -38.469
54 1  -12.693  -14.821  -35.490
55 1  -17.757  -12.002  -38.648
56 1  -18.428  -11.652  -35.100
57 1  -13.959  -11.633  -32.962
58 1  -20.248   -8.304  -34.003
59 1  -19.292   -8.719  -30.156
60 1  -15.626  -12.128  -29.764
61 1  -18.364   -5.933  -28.904
62 1  -17.566   -7.565  -25.311
63 1  -15.641  -11.840  -26.110
ITEM: TIMESTEP
3
ITEM: NUMBER OF ATOMS
63
ITEM: BOX BOUNDS pp pp pp
-42.13749694824219 43.376502990722656
-42.3942985534668 43.11970138549805
-37.30080032348633 48.213199615478516
ITEM: ATOMS id type xu yu zu
1 1   -9.958  -41.489   13.593
2 1  -12.566   41.598   15.965
3 1   -7.857  -38.872   15.854
4 1   -9.962  -39.307   18.792
5 1   -9.793   42.424   19.137
6 1   -9.164  -37.468   21.574
7 1  -11.740  -39.641   23.660
8 1   -9.363   42.776   23.215
9 1  -12.348  -38.805   26.898
10 1  -12.960  -42.067   27.926
11 1   -8.960   40.903   26.971
12 1  -13.762  -42.394   31.574
13 1  -12.619   39.007   32.006
14 1   -8.788   39.223   30.243
15 1  -12.658   37.122   35.158
16 1  -10.062   34.611   33.684
17 1   -6.989   35.937   31.636
18 1   -6.667   32.931   29.557
19 1   -6.475   35.266   25.668
20 1   -9.302   30.212   29.486
21 1   -9.051   29.667   25.277
22 1  -10.303   33.546   23.402
23 1  -10.307   27.455   23.610
24 1  -13.616   29.007   23.123
25 1  -11.902   31.521   20.515
26 1  -16.511   27.193   21.569
27 1  -18.134   30.675   21.711
28 1  -15.603   32.614   19.444
29 1  -21.366   31.269   21.010
30 1  -20.765   33.522   17.696
31 1  -17.234   31.413   16.080
32 1  -34.316    6.003  -34.805
33 1  -32.232    9.303  -37.301
34 1  -33.377    5.898  -31.293
35 1  -29.624    6.299  -32.383
36 1  -29.643   10.238  -34.567
37 1  -27.189    6.200  -29.913
38 1  -24.726    7.853  -32.007
39 1  -26.760   11.782  -32.990
40 1  -21.598    8.160  -31.094
41 1  -22.267   11.548  -30.025
42 1  -23.413   12.778  -33.758
43 1  -19.455   13.441  -28.526
44 1  -21.473   15.722  -26.047
45 1  -25.655   13.904  -26.172
46 1  -21.732   18.937  -26.718
47 1  -22.626   19.823  -23.347
48 1  -19.029   18.118  -22.003
49 1  -25.525   18.934  -21.934
50 1  -27.554   21.739  -23.911
51 1  -29.044   24.837  -21.561
52 1  -29.130   21.105  -26.567
53 1  -32.410   21.500  -24.964
54 1  -32.273   25.122  -23.126
55 1  -35.402   20.243  -27.103
56 1  -38.166   22.864  -25.343
57 1  -36.230   25.605  -21.805
58 1  -40.704   24.805  -27.201
59 1  -41.228   27.213  -23.855
60 1  -37.169   29.634  -22.474
61 1   41.628   29.401  -23.458
62 1  -42.137   32.033  -21.099
63 1  -38.556   29.663  -19.030
ITEM: TIMESTEP
4
ITEM: NUMBER OF ATOMS
63
ITEM: BOX BOUNDS pp pp pp
-37.277099609375 48.236900329589844
-29.553001403808594 55.96099853515625
-41.9031982421875 43.610801696777344
ITEM: ATOMS id type xu yu zu
1 1  -32.310   -4.907  -41.903
2 1  -31.857   -5.036   39.797
3 1  -32.972   -8.007  -40.596
4 1  -29.468   -9.757  -41.817
5 1  -29.203   -8.176   39.594
6 1  -29.326  -13.392  -41.770
7 1  -30.541  -14.217   40.588
8 1  -27.952  -11.631   38.737
9 1  -30.333  -17.862   39.514
10 1  -30.276  -16.656   35.241
11 1  -26.701  -14.032   35.272
12 1  -30.016  -18.908   32.885
13 1  -28.537  -16.263   30.155
14 1  -24.879  -15.477   32.558
15 1  -28.275  -17.462   26.934
16 1  -25.027  -15.146   26.399
17 1  -23.449  -15.137   23.644
18 1  -20.043  -13.820   25.121
19 1  -19.038  -16.861   26.955
20 1  -17.566  -12.197   22.475
21 1  -14.425  -12.643   25.285
22 1  -14.729  -16.840   26.893
23 1  -11.150  -12.072   24.004
24 1   -9.127  -14.204   26.382
25 1  -11.517  -17.438   25.286
26 1   -5.305  -14.527   25.283
27 1   -5.502  -18.088   27.255
28 1   -7.973  -19.663   25.226
29 1   -2.452  -20.267   27.797
30 1   -4.693  -23.196   28.545
31 1   -5.645  -23.289   24.247
32 1  -13.784  -27.218   19.069
33 1  -10.072  -24.773   21.131
34 1  -15.556  -28.663   21.658
35 1  -12.928  -28.277   24.364
36 1  -11.135  -23.975   24.496
37 1  -13.922  -29.553   27.869
38 1  -12.420  -26.869   30.148
39 1  -13.215  -22.748   27.485
40 1  -13.743  -26.842   33.885
41 1  -12.695  -22.830   34.353
42 1  -15.037  -21.880   30.692
43 1  -13.484  -21.062   37.279
44 1  -13.317  -17.168   35.606
45 1  -16.928  -17.955   32.194
46 1  -13.678  -14.410   37.410
47 1  -13.853  -11.940   34.371
48 1  -17.022  -14.365   33.072
49 1  -14.323   -8.094   34.439
50 1  -17.527   -8.415   31.508
51 1  -20.440  -11.500   33.103
52 1  -19.370   -5.433   30.047
53 1  -22.238   -7.330   28.986
54 1  -23.241   -9.026   32.691
55 1  -25.123   -6.130   27.132
56 1  -27.609   -9.009   28.394
57 1  -27.404   -9.531   32.809
58 1  -30.649   -9.546   27.149
59 1  -32.514  -11.021   30.380
60 1  -30.904   -9.029   34.420
61 1  -36.669  -11.209   30.083
62 1  -37.277  -11.103   33.704
63 1  -34.323   -8.016   35.386
ITEM: TIMESTEP
5
ITEM: NUMBER OF ATOMS
63
ITEM: BOX BOUNDS pp pp pp
-41.741798400878906 43.77220153808594
-41.24800109863281 44.26599884033203
-42.008201599121094 43.50579833984375
ITEM: ATOMS id type xu yu zu
1 1  -29.761  -30.118  -40.836
2 1  -30.741  -34.186  -40.337
3 1  -32.452  -27.392  -39.769
4 1  -35.141  -30.321  -39.089
5 1  -33.950  -32.874  -42.008
6 1  -38.662  -29.813  -39.342
7 1  -38.619  -28.713   42.325
8 1  -38.061  -32.333   40.540
9 1  -41.284  -26.644   40.795
10 1  -41.425  -27.979   37.701
11 1  -41.742  -32.664   38.639
12 1   41.997  -26.910   35.691
13 1   41.606  -30.509   34.211
14 1   40.307  -32.033   37.675
15 1   39.786  -30.501   31.534
16 1   41.780  -33.546   29.718
17 1   41.106  -34.868   26.335
18 1   37.186  -35.995   27.388
19 1   37.893  -36.991   31.343
20 1   35.442  -38.974   25.403
21 1   33.189  -39.812   27.996
22 1   32.288   41.612   27.023
23 1   34.036  -39.419   31.762
24 1   30.706  -40.775   32.978
25 1   31.234   41.575   30.435
26 1   29.824  -41.248   36.161
27 1   27.028   41.253   34.797
28 1   30.391   38.791   33.354
29 1   24.697   39.260   36.529
30 1   24.852   36.144   33.904
31 1   29.136   35.236   34.821
32 1   40.104   18.549   35.266
33 1  -41.573   17.216   32.766
34 1   39.952   22.228   35.001
35 1  -41.354   22.624   33.815
36 1  -39.985   19.291   30.269
37 1  -40.543   25.438   32.928
38 1  -36.498   24.348   31.688
39 1  -37.564   20.994   28.326
40 1  -34.132   27.098   30.432
41 1  -32.157   24.417   28.170
42 1  -35.105   22.660   26.248
43 1  -29.142   25.422   26.178
44 1  -29.699   22.677   23.587
45 1  -34.053   22.650   22.132
46 1  -27.925   22.461   20.292
47 1  -31.000   22.566   18.286
48 1  -33.176   19.431   20.439
49 1  -30.930   22.181   14.692
50 1  -29.144   19.139   15.183
51 1  -32.863   16.289   17.329
52 1  -28.065   17.352   12.454
53 1  -27.347   14.215   14.706
54 1  -31.203   13.811   15.270
55 1  -25.912   11.439   13.386
56 1  -28.985    8.952   14.197
57 1  -30.645   10.933   18.282
58 1  -28.256    5.250   14.607
59 1  -24.166    4.975   14.800
60 1  -23.228    3.410   18.959
61 1  -22.468    2.802   12.574
62 1  -19.433    1.923   14.678
63 1  -20.973    0.480   18.659
ITEM: TIMESTEP
6
ITEM: NUMBER OF ATOMS
63
ITEM: BOX BOUNDS pp pp pp
-43.15120315551758 42.362796783447266
-9.092220306396484 76.42178344726562
0.6719630360603333 86.18596649169922
ITEM: ATOMS id type xu yu zu
1 1  -27.621   27.652   13.462
2 1  -27.237   24.441   11.078
3 1  -30.568   27.327   15.760
4 1  -32.919   26.134   13.020
5 1  -30.550   22.498   11.632
6 1  -36.497   24.812   13.587
7 1  -36.682   21.920   11.320
8 1  -33.147   19.917   12.714
9 1  -39.557   20.426   10.915
10 1  -37.965   17.103    9.570
11 1  -34.682   15.918   12.248
12 1  -40.462   14.193    8.854
13 1  -37.938   11.781    8.411
14 1  -36.531   12.579   12.217
15 1  -38.643    8.520    7.372
16 1  -35.708    7.122    8.957
17 1  -34.582    4.046    8.302
18 1  -32.964    3.898   11.302
19 1  -35.802    4.654   13.093
20 1  -30.870    1.127   12.199
21 1  -30.893    2.134   15.834
22 1  -35.452    2.261   16.575
23 1  -29.218    0.351   18.201
24 1  -31.708    1.867   21.080
25 1  -34.682    0.130   19.635
26 1  -31.111    1.507   25.020
27 1  -34.898    1.382   26.016
28 1  -35.966   -1.421   23.316
29 1  -35.845    0.599   29.153
30 1  -39.140   -0.314   27.960
31 1  -38.314   -3.387   25.744
32 1  -43.151   -9.092   18.458
33 1  -39.939   -6.412   21.445
34 1   40.514   -7.229   16.586
35 1   40.391   -4.192   19.289
36 1  -40.392   -2.971   20.540
37 1   38.512   -1.306   18.384
38 1   40.378    1.219   20.666
39 1  -40.603    0.515   19.436
40 1   39.882    5.159   21.192
41 1  -41.785    5.946   22.696
42 1  -40.460    4.113   19.115
43 1  -40.229    9.161   23.272
44 1  -36.785    7.707   22.799
45 1  -37.269    7.013   18.161
46 1  -34.081    9.701   23.529
47 1  -32.011    8.064   20.740
48 1  -34.973    9.780   17.506
49 1  -28.758    8.895   20.818
50 1  -28.217    8.193   17.066
51 1  -31.669   11.392   15.593
52 1  -25.409    8.925   15.385
53 1  -27.420    9.912   11.694
54 1  -29.358   13.302   13.107
55 1  -25.539   10.509    9.182
56 1  -28.440   12.168    7.059
57 1  -29.773   16.169    9.629
58 1  -27.954   12.873    3.885
59 1  -30.220   15.869    3.658
60 1  -29.469   19.203    7.189
61 1  -30.387   17.728    0.672
62 1  -31.321   21.624    2.116
63 1  -28.387   22.510    6.073
ITEM: TIMESTEP
7
ITEM: NUMBER OF ATOMS
63
ITEM: BOX BOUNDS pp pp pp
-5.2624101638793945 80.2515869140625
-17.43779945373535 68.07620239257812
-41.43720245361328 44.07679748535156
ITEM: ATOMS id type xu yu zu
1 1    3.340   -7.469  -37.930
2 1    1.352   -8.757  -41.245
3 1    5.630   -4.713  -38.639
4 1    7.447   -6.354  -41.437
5 1    3.917   -7.391   41.763
6 1   10.637   -4.889   41.822
7 1   10.072   -7.394   38.906
8 1    5.878   -6.555   38.304
9 1   12.284   -7.206   36.214
10 1    9.626   -8.968   33.864
11 1    6.326   -6.163   34.126
12 1   10.910   -9.219   30.831
13 1    7.529   -8.893   28.826
14 1    6.740   -4.887   30.807
15 1    7.725   -8.887   25.510
16 1    5.963   -5.687   25.231
17 1    4.638   -4.217   21.804
18 1    2.638   -1.040   23.860
19 1    6.311    0.381   26.026
20 1    0.974    1.481   22.069
21 1    0.997    4.164   24.534
22 1    5.090    4.482   26.085
23 1   -0.030    7.276   23.509
24 1    2.104    8.946   26.390
25 1    6.058    7.857   24.899
26 1    1.733   12.581   27.014
27 1    4.860   13.035   29.030
28 1    7.790   11.308   26.106
29 1    5.284   16.332   29.934
30 1    9.640   16.142   29.601
31 1    9.903   14.527   25.658
32 1   19.120   10.443   20.155
33 1   23.027   13.404   22.098
34 1   19.413    7.206   22.045
35 1   17.933    8.570   25.651
36 1   13.214    9.452   24.858
37 1   18.349    6.367   28.354
38 1   15.370    7.848   30.309
39 1   11.602    7.499   27.371
40 1   14.804    6.878   33.272
41 1   10.726    7.920   33.093
42 1    9.921    5.414   29.806
43 1    9.265    7.496   35.737
44 1    5.715    6.627   33.868
45 1    6.705    3.295   31.420
46 1    2.753    6.553   36.152
47 1    0.568    3.977   33.867
48 1    4.018    1.590   33.395
49 1   -2.334    2.371   35.605
50 1   -2.504   -0.252   32.914
51 1    1.810   -2.097   32.815
52 1   -5.262   -2.624   33.163
53 1   -2.963   -5.974   32.109
54 1    0.235   -4.748   34.692
55 1   -4.525   -9.341   32.045
56 1   -1.283  -10.980   32.343
57 1    0.888   -8.707   35.795
58 1   -1.159  -14.813   32.462
59 1    1.975  -14.784   34.869
60 1    1.835  -11.215   38.482
61 1    3.609  -17.438   35.630
62 1    5.268  -16.288   38.904
63 1    2.212  -13.534   41.331
ITEM: TIMESTEP
8
ITEM: NUMBER OF ATOMS
63
ITEM: BOX BOUNDS pp pp pp
-42.794097900390625 42.71990203857422
-10.948400497436523 74.56559753417969
-38.36090087890625 47.153099060058594
ITEM: ATOMS id type xu yu zu
1 1  -42.013   -0.148  -33.549
2 1  -41.327    2.161  -30.792
3 1  -42.088    1.433  -36.457
4 1  -41.704    4.725  -34.787
5 1  -38.500    3.938  -32.955
6 1  -41.075    7.135  -37.124
7 1  -39.820    9.295  -34.394
8 1  -36.534    7.315  -34.222
9 1  -39.112   12.752  -34.875
10 1  -35.258   12.169  -35.234
11 1  -35.631    9.319  -38.361
12 1  -32.674   15.102  -35.896
13 1  -33.118   16.760  -31.813
14 1  -29.719   18.710  -31.521
15 1  -35.929   17.693  -30.388
16 1  -34.423   19.544  -27.414
17 1  -31.697   18.113  -25.463
18 1  -31.669   20.834  -22.796
19 1  -35.752   19.914  -21.356
20 1  -29.256   21.039  -20.256
21 1  -31.917   22.418  -17.264
22 1  -35.448   19.644  -17.198
23 1  -30.599   22.711  -13.549
24 1  -32.369   19.408  -12.340
25 1  -35.965   20.529  -13.334
26 1  -31.600   17.666   -9.868
27 1  -34.201   14.680  -10.690
28 1  -37.594   17.104  -11.951
29 1  -35.115   12.088   -8.401
30 1  -37.855   10.473  -11.275
31 1  -39.482   13.699  -11.775
32 1  -22.036   -3.339   33.064
33 1  -27.055   -4.632   32.742
34 1  -20.359   -4.046   29.878
35 1  -22.614   -6.490   28.748
36 1  -27.293   -4.930   29.101
37 1  -22.046   -7.867   25.639
38 1  -25.861   -9.454   25.128
39 1  -28.567   -5.815   25.784
40 1  -26.906  -10.948   21.810
41 1  -30.762   -9.637   21.923
42 1  -29.183   -5.404   22.160
43 1  -33.307  -10.400   19.292
44 1  -35.817   -8.209   20.576
45 1  -33.324   -4.443   22.394
46 1  -38.199   -6.904   18.332
47 1  -39.888   -4.530   21.208
48 1  -36.806   -4.417   24.067
49 1   42.417   -4.807   22.248
50 1   42.019   -1.588   23.489
51 1  -38.736   -0.614   24.783
52 1   40.721    1.038   21.538
53 1  -42.794    3.836   23.853
54 1  -39.514    2.224   22.794
55 1   42.649    7.328   23.254
56 1  -39.876    7.177   20.270
57 1  -36.372    4.878   21.956
58 1  -38.597   10.266   18.828
59 1  -34.791    9.148   19.632
60 1  -34.243    4.639   18.870
61 1  -32.112   10.473   17.860
62 1  -29.731    7.188   16.847
63 1  -27.125    8.387   12.768
ITEM: TIMESTEP
9
ITEM: NUMBER OF ATOMS
63
ITEM: BOX BOUNDS pp pp pp
-24.803199768066406 60.71080017089844
-40.18470001220703 45.32929992675781
-42.76790237426758 42.746097564697266
ITEM: ATOMS id type xu yu zu
1 1  -24.197  -31.235   42.641
2 1  -19.882  -31.041   41.223
3 1  -24.803  -30.433  -39.703
4 1  -21.390  -27.737  -39.145
5 1  -18.061  -29.739  -41.032
6 1  -20.722  -26.119  -36.009
7 1  -17.477  -28.611  -34.904
8 1  -15.347  -28.239  -38.837
9 1  -15.577  -27.999  -31.841
10 1  -12.424  -29.925  -33.128
11 1  -11.291  -28.614  -37.494
12 1   -9.207  -30.647  -31.112
13 1   -7.366  -31.581  -34.660
14 1   -7.860  -27.833  -36.492
15 1   -3.594  -32.661  -35.006
16 1   -3.233  -31.474  -38.744
17 1   -0.660  -32.407  -40.486
18 1   -0.495  -29.553   42.936
19 1   -0.108  -27.208  -39.605
20 1    1.886  -29.014   40.435
21 1    1.935  -25.370   40.390
22 1    2.811  -24.440  -40.742
23 1    4.202  -23.291   37.891
24 1    5.690  -20.546   40.733
25 1    6.254  -22.953  -41.720
26 1    3.845  -17.176   41.381
27 1    6.684  -15.574  -42.308
28 1    8.587  -19.292  -40.341
29 1    6.145  -13.223  -40.419
30 1    6.474  -15.451  -37.091
31 1   10.269  -17.025  -37.619
32 1   15.593  -24.592  -34.152
33 1   13.070  -21.681  -36.547
34 1   13.480  -26.023  -31.130
35 1   10.737  -23.098  -31.063
36 1    9.546  -22.339  -35.847
37 1    7.972  -23.163  -28.799
38 1    6.247  -20.288  -31.299
39 1    6.091  -22.732  -35.685
40 1    3.039  -18.881  -30.788
41 1    2.260  -17.540  -34.303
42 1    2.570  -21.464  -35.785
43 1   -0.911  -15.695  -35.008
44 1   -0.951  -16.972  -38.774
45 1   -0.561  -21.411  -38.439
46 1   -3.960  -16.073  -40.890
47 1   -3.231  -19.491   42.636
48 1   -3.830  -21.957  -39.874
49 1   -4.793  -20.413   39.533
50 1   -4.789  -24.125   40.560
51 1   -7.060  -24.746  -41.406
52 1   -5.115  -26.682   38.384
53 1   -5.069  -29.613   40.787
54 1   -8.466  -27.903   42.925
55 1   -5.906  -32.564   39.576
56 1   -7.868  -34.008   43.006
57 1  -11.555  -31.027  -42.084
58 1   -8.708  -37.261  -42.768
59 1  -11.686  -37.098  -40.911
60 1  -14.680  -34.106   42.471
61 1  -13.376  -40.185  -39.764
62 1  -17.658  -39.041  -40.665
63 1  -17.677  -35.999   41.073
ITEM: TIMESTEP
10
ITEM: NUMBER OF ATOMS
63
ITEM: BOX BOUNDS pp pp pp
-32.623199462890625 52.89080047607422
-30.03609848022461 55.477901458740234
-41.91130065917969 43.602699279785156
ITEM: ATOMS id type xu yu zu
1 1  -18.959  -22.319  -37.099
2 1  -22.871  -22.139  -39.162
3 1  -16.285  -21.732  -39.029
4 1  -17.483  -24.414  -41.886
5 1  -21.362  -22.492   42.577
6 1  -15.401  -25.306   41.059
7 1  -18.705  -26.516   38.542
8 1  -20.776  -22.773   38.718
9 1  -18.172  -27.857   34.969
10 1  -21.735  -27.183   33.979
11 1  -22.163  -22.646   34.489
12 1  -23.146  -28.288   30.459
13 1  -26.093  -25.856   29.930
14 1  -23.275  -22.278   31.106
15 1  -27.765  -25.754   26.320
16 1  -29.201  -21.714   26.807
17 1  -29.797  -19.406   24.127
18 1  -28.459  -16.447   26.101
19 1  -24.433  -17.664   25.800
20 1  -29.319  -12.923   24.796
21 1  -26.186  -11.516   26.180
22 1  -22.554  -14.137   24.076
23 1  -25.240   -7.725   25.652
24 1  -21.635   -8.067   24.378
25 1  -22.718  -11.311   21.730
26 1  -19.553   -5.444   22.855
27 1  -16.996   -7.692   21.160
28 1  -20.032   -9.760   19.100
29 1  -14.035   -6.306   19.138
30 1  -13.936   -9.469   16.342
31 1  -18.091   -9.572   15.649
32 1  -23.100  -16.962   10.693
33 1  -21.415  -13.156   13.410
34 1  -22.306  -20.101   12.569
35 1  -18.887  -18.707   14.132
36 1  -20.411  -14.628   16.498
37 1  -17.005  -20.893   15.720
38 1  -15.527  -17.957   18.056
39 1  -19.189  -15.727   19.597
40 1  -13.007  -18.896   20.825
41 1  -14.110  -15.963   22.889
42 1  -17.702  -17.132   23.289
43 1  -12.123  -14.739   26.008
44 1  -15.309  -12.622   27.589
45 1  -18.882  -16.201   27.268
46 1  -15.722  -10.704   30.844
47 1  -19.736  -11.301   30.835
48 1  -19.985  -15.641   30.747
49 1  -21.379  -10.143   32.991
50 1  -25.037  -12.429   32.929
51 1  -23.514  -16.598   33.082
52 1  -27.514  -12.073   35.376
53 1  -28.904  -15.899   34.808
54 1  -25.154  -17.604   36.139
55 1  -32.046  -17.218   36.601
56 1  -30.703  -20.796   36.470
57 1  -26.371  -20.930   38.384
58 1  -32.623  -23.176   37.611
59 1  -29.978  -26.312   38.109
60 1  -26.381  -23.962   40.667
61 1  -31.034  -29.007   39.678
62 1  -27.455  -30.036   41.128
63 1  -26.090  -26.098  -41.911
ITEM: TIMESTEP
11
ITEM: NUMBER OF ATOMS
63
ITEM: BOX BOUNDS pp pp pp
-41.64480209350586 43.869197845458984
-30.528099060058594 54.98590087890625
-26.28459930419922 59.229400634765625
ITEM: ATOMS id type xu yu zu
1 1   11.467  -27.980  -20.338
2 1    9.243  -24.840  -19.207
3 1   12.124  -30.528  -17.566
4 1   12.228  -28.021  -15.049
5 1   15.887  -28.013  -14.628
6 1   10.349  -24.452  -15.211
7 1   13.031  -22.383  -13.849
8 1   15.309  -24.791  -16.629
9 1   13.132  -19.061  -13.634
10 1   16.014  -18.162  -15.855
11 1   18.177  -21.851  -17.853
12 1   17.926  -14.530  -16.343
13 1   18.679  -14.990  -20.383
14 1   19.351  -18.839  -19.698
15 1   21.162  -12.897  -22.487
16 1   18.802  -12.717  -26.058
17 1   15.158  -12.105  -26.285
18 1   14.423  -11.504  -22.281
19 1   16.980   -8.359  -22.420
20 1   11.571  -10.923  -20.556
21 1   13.599  -10.380  -16.882
22 1   11.548   -6.716  -15.573
23 1   13.659  -12.643  -14.253
24 1   13.381   -9.954  -11.727
25 1    9.507   -8.742  -13.348
26 1   13.274  -11.210   -8.509
27 1   11.136   -8.296   -7.564
28 1    7.518   -9.344   -9.889
29 1   10.811   -7.272   -4.017
30 1    6.684   -8.424   -3.997
31 1    6.754  -12.398   -2.471
32 1  -41.645   12.571    1.538
33 1  -40.370   17.421    0.517
34 1  -40.262   10.400   -0.998
35 1  -37.016   11.921   -0.787
36 1  -36.907   16.356   -0.392
37 1  -34.203   10.433   -1.837
38 1  -32.236   12.461    1.337
39 1  -34.961   16.515    2.524
40 1  -28.824   13.167    1.420
41 1  -29.256   14.868    4.572
42 1  -31.733   17.997    2.784
43 1  -26.516   16.067    6.410
44 1  -27.476   19.332    5.618
45 1  -31.902   19.557    6.904
46 1  -25.636   22.696    6.225
47 1  -28.416   25.111    6.299
48 1  -30.860   22.660    8.983
49 1  -27.372   28.912    6.912
50 1  -30.241   29.500    9.167
51 1  -30.153   25.871   12.236
52 1  -30.997   32.751   10.766
53 1  -34.113   31.048   12.714
54 1  -31.583   28.445   14.352
55 1  -35.822   32.936   14.797
56 1  -37.490   30.116   16.272
57 1  -33.588   27.948   18.147
58 1  -39.545   31.126   18.735
59 1  -38.528   28.155   21.416
60 1  -34.138   28.718   21.990
61 1  -40.458   28.120   24.264
62 1  -37.167   26.968   26.250
63 1  -33.840   30.213   25.238
ITEM: TIMESTEP
12
ITEM: NUMBER OF ATOMS
63
ITEM: BOX BOUNDS pp pp pp
-42.48249816894531 43.03150177001953
-5.14424991607666 80.3697509765625
-42.97740173339844 42.536598205566406
ITEM: ATOMS id type xu yu zu
1 1   39.213   -5.144  -42.977
2 1   41.917   -3.521  -39.948
3 1   40.196   -4.052   39.291
4 1   40.577   -0.577   40.446
5 1  -41.643   -1.153  -42.273
6 1   41.449    1.918   38.231
7 1   42.205    4.245   40.554
8 1  -39.877    1.914   41.915
9 1  -42.482    7.590   39.700
10 1  -40.335    7.856   42.671
11 1  -36.690    4.687   41.689
12 1  -39.483   11.037  -41.885
13 1  -35.454   10.189  -41.428
14 1  -35.239    7.779   40.601
15 1  -32.807   12.583  -41.595
16 1  -30.178   10.640  -42.466
17 1  -26.526   11.585   42.257
18 1  -25.385    8.443   40.394
19 1  -28.490    8.188   38.189
20 1  -22.031    8.622   39.128
21 1  -22.560    6.146   36.067
22 1  -25.836    8.150   33.895
23 1  -20.081    4.920   34.293
24 1  -22.116    4.006   31.437
25 1  -23.302    7.754   31.222
26 1  -20.661    2.441   28.373
27 1  -24.164    3.492   26.226
28 1  -23.456    7.728   27.092
29 1  -24.337    2.773   23.185
30 1  -26.424    5.470   22.529
31 1  -23.667    7.884   22.964
32 1  -24.833   17.918   24.330
33 1  -23.511   13.158   24.626
34 1  -28.260   18.101   23.553
35 1  -29.124   16.418   26.469
36 1  -26.274   12.806   27.271
37 1  -32.255   15.373   26.708
38 1  -31.360   11.957   25.766
39 1  -28.118   10.701   29.519
40 1  -33.709    9.829   25.051
41 1  -31.495    6.411   26.506
42 1  -30.667    8.260   29.996
43 1  -33.481    3.161   26.842
44 1  -30.840    1.969   29.511
45 1  -31.121    5.056   33.085
46 1  -31.010   -1.625   30.781
47 1  -29.404   -0.777   34.604
48 1  -32.710    2.292   35.329
49 1  -29.176   -3.314   36.885
50 1  -28.656   -1.015   39.486
51 1  -32.525    2.099   39.469
52 1  -27.498   -2.668  -42.650
53 1  -29.393    0.219  -40.558
54 1  -33.187    0.186  -42.641
55 1  -29.420    0.630  -36.850
56 1  -32.728    3.440  -37.020
57 1  -35.783    1.891  -39.551
58 1  -34.003    4.756  -34.029
59 1  -37.862    5.398  -35.103
60 1  -39.640    1.410  -37.830
61 1  -40.767    6.917  -33.004
62 1   41.686    5.352  -34.514
63 1   42.605    0.954  -36.096
ITEM: TIMESTEP
13
ITEM: NUMBER OF ATOMS
63
ITEM: BOX BOUNDS pp pp pp
-42.965797424316406 42.54820251464844
-0.7349939346313477 84.77900695800781
-26.721302032470703 58.79269790649414
ITEM: ATOMS id type xu yu zu
1 1  -22.982    5.704  -23.757
2 1  -26.146    3.925  -22.279
3 1  -22.878    9.285  -23.167
4 1  -26.812    9.573  -23.868
5 1  -28.512    6.912  -21.247
6 1  -28.321   12.789  -24.066
7 1  -31.804   11.325  -23.571
8 1  -31.163    9.281  -19.970
9 1  -34.850   13.202  -23.626
10 1  -37.220   10.731  -21.886
11 1  -34.824    9.677  -17.808
12 1  -40.231   12.014  -21.309
13 1  -40.978    9.529  -18.013
14 1  -37.660   11.347  -15.879
15 1   41.289    9.444  -16.488
16 1  -42.966    7.800  -13.609
17 1   40.896    7.903  -10.893
18 1  -40.890    7.652   -8.359
19 1  -39.522   11.845   -9.463
20 1  -41.406    6.767   -4.600
21 1  -38.196    9.592   -3.477
22 1  -39.400   13.820   -5.625
23 1  -37.209   10.456    0.301
24 1  -35.251   14.255   -0.842
25 1  -38.646   15.327   -2.392
26 1  -34.290   16.382    2.125
27 1  -34.821   19.599    0.356
28 1  -38.997   18.942   -0.451
29 1  -33.813   22.562    2.112
30 1  -36.695   24.983    0.768