ITEM: TIMESTEP
0
ITEM: NUMBER OF ATOMS
63
ITEM: BOX BOUNDS pp pp pp
-42.213897705078125 43.30010223388672
-16.247900009155273 69.26609802246094
-16.034299850463867 69.47969818115234
ITEM: ATOMS id type xu yu zu
1 1  -15.291   10.853   -2.782
2 1  -16.275   10.056    1.415
3 1  -17.969    9.813   -5.494
4 1  -16.851    6.077   -5.966
5 1  -19.238    4.358   -2.911
6 1  -17.792    4.034   -9.032
7 1  -17.859    0.720   -7.301
8 1  -21.210    1.634   -4.421
9 1  -18.173   -2.405   -9.687
10 1  -20.154   -4.776   -7.095
11 1  -21.330   -8.264   -7.811
12 1  -23.841   -8.388   -4.390
13 1  -25.851   -5.005   -5.578
14 1  -25.761  -11.219   -3.942
15 1  -28.538   -9.626   -1.673
16 1  -29.803   -6.205   -4.459
17 1  -31.314  -11.661   -0.080
18 1  -33.818   -8.567    0.252
19 1  -33.438   -7.407   -4.297
20 1  -37.366   -9.068    1.623
21 1  -38.458   -6.179   -0.063
22 1  -37.613   -7.426   -4.698
23 1  -41.604   -4.745    0.448
24 1  -41.974   -2.915   -2.738
25 1  -41.186   -6.507   -4.899
26 1   40.520   -1.619   -3.678
27 1   40.754   -1.777   -7.797
28 1   41.512   -5.536   -7.750
29 1   37.670   -0.231  -10.299
30 1   34.997   -3.079   -9.109
31 1   37.750   -6.179   -8.407
32 1   39.882  -14.803  -13.524
33 1   39.932  -10.885  -10.895
34 1  -42.214  -16.248  -13.720
35 1  -41.075  -12.486  -14.548
36 1  -42.176   -9.705  -10.928
37 1  -37.403  -11.961  -15.418
38 1  -37.891   -8.034  -14.921
39 1  -38.970   -8.434   -9.911
40 1  -35.622   -5.963  -16.034
41 1  -37.088   -3.017  -13.403
42 1  -36.089   -5.828  -10.173
43 1  -36.207    0.616  -13.382
44 1  -37.059    0.794   -9.344
45 1  -34.866   -2.613   -7.654
46 1  -36.251    3.618   -7.663
47 1  -35.366    1.481   -4.144
48 1  -32.413   -0.979   -5.436
49 1  -34.553    3.167   -1.374
50 1  -32.682    0.455    0.454
51 1  -29.407   -1.039   -2.608
52 1  -31.045    0.999    4.169
53 1  -28.515   -1.730    4.174
54 1  -26.806   -1.245    0.062
55 1  -26.366   -2.513    6.787
56 1  -23.249   -4.186    4.487
57 1  -22.800   -0.868    0.832
58 1  -20.374   -5.144    5.799
59 1  -18.171   -4.040    2.628
60 1  -19.112    0.426    0.825
61 1  -14.495   -4.097    2.575
62 1  -14.025   -0.582    1.596
63 1  -17.818    1.813    4.278
ITEM: TIMESTEP
1
ITEM: NUMBER OF ATOMS
63
ITEM: BOX BOUNDS pp pp pp
-22.830299377441406 62.68370056152344
-42.838802337646484 42.67519760131836
-41.99420166015625 43.519798278808594
ITEM: ATOMS id type xu yu zu
1 1   30.825   31.030   -1.764
2 1   31.364   33.622    1.743
3 1   27.734   29.408   -1.707
4 1   25.834   31.641    1.139
5 1   28.410   32.018    3.890
6 1   22.683   30.430    1.981
7 1   21.913   33.345    4.219
8 1   25.459   33.083    6.191
9 1   18.874   33.699    6.476
10 1   16.429   32.607    3.667
11 1   12.936   32.682    4.072
12 1   12.814   30.408    7.034
13 1    9.209   31.949    8.183
14 1   12.971   27.156    7.222
15 1   12.788   26.797   11.196
16 1    9.383   29.237   11.795
17 1   11.924   23.791   12.279
18 1   11.112   24.756   16.263
19 1    8.501   27.858   15.056
20 1   10.054   22.399   18.084
21 1    9.143   24.432   20.921
22 1    6.941   27.615   19.157
23 1    7.086   22.998   23.984
24 1    5.423   25.733   25.624
25 1    5.448   28.759   22.231
26 1    1.828   24.884   27.022
27 1    0.495   29.003   26.705
28 1    1.289   28.876   22.197
29 1   -2.859   29.796   27.757
30 1   -3.643   25.836   29.165
31 1   -7.632   26.213   28.048
32 1  -17.111  -23.984  -26.707
33 1  -17.184  -24.730  -31.225
34 1  -13.930  -22.762  -25.675
35 1  -12.019  -25.774  -27.473
36 1  -15.058  -29.451  -27.253
37 1   -8.072  -26.481  -26.810
38 1   -8.545  -30.528  -26.360
39 1  -12.603  -31.219  -29.310
40 1   -5.445  -32.828  -27.274
41 1   -7.579  -35.947  -27.788
42 1  -10.595  -34.148  -30.608
43 1   -6.694  -39.087  -28.251
44 1   -9.276  -40.107  -31.310
45 1   -9.543  -36.276  -33.912
46 1   -8.783  -42.839  -33.185
47 1  -10.639  -41.632  -36.481
48 1   -8.348  -37.712  -37.362
49 1  -11.198   41.792  -39.225
50 1  -11.214  -41.648  -41.994
51 1   -7.001   42.518   41.264
52 1  -11.902  -38.567  -41.436
53 1  -12.691  -37.944   40.389
54 1  -16.731  -37.064   41.651
55 1  -10.890  -35.104   38.337
56 1  -13.858  -34.752   35.821
57 1  -15.000  -38.732   34.426
58 1  -14.090  -32.085   33.469
59 1  -17.760  -33.129   32.208
60 1  -17.782  -37.873   31.922
61 1  -19.355  -31.178   29.491
62 1  -22.830  -31.691   30.572
63 1  -22.441  -33.833   34.987
ITEM: TIMESTEP
2
ITEM: NUMBER OF ATOMS
63
ITEM: BOX BOUNDS pp pp pp
-33.263099670410156 52.25090026855469
-41.737701416015625 43.77629852294922
14.548700332641602 100.06269836425781
ITEM: ATOMS id type xu yu zu
1 1   -9.168   -9.314   16.005
2 1  -11.151   -5.835   17.666
3 1  -10.866  -12.306   16.742
4 1  -10.811  -12.315   20.182
5 1  -13.267   -8.781   20.017
6 1  -12.231  -14.890   22.022
7 1  -12.713  -12.614   25.302
8 1  -14.917   -9.942   23.083
9 1  -14.407  -14.163   28.184
10 1  -14.217  -17.820   26.657
11 1  -13.948  -20.695   28.652
12 1  -17.410  -20.805   29.256
13 1  -18.121  -23.003   25.994
14 1  -19.097  -22.257   32.389
15 1  -22.296  -22.358   30.951
16 1  -21.454  -25.251   26.895
17 1  -25.043  -23.596   32.986
18 1  -27.163  -24.883   29.698
19 1  -23.696  -27.765   28.713
20 1  -30.626  -26.392   30.403
21 1  -30.612  -28.826   27.500
22 1  -26.417  -30.991   27.921
23 1  -33.263  -30.906   26.762
24 1  -31.430  -33.239   24.646
25 1  -28.427  -33.959   27.536
26 1  -32.890  -36.362   23.553
27 1  -29.430  -37.935   23.008
28 1  -28.610  -37.977   26.628
29 1  -29.141  -41.249   21.085
30 1  -26.457   43.411   23.062
31 1  -28.140   43.415   26.594
32 1  -25.423  -41.342   36.617
33 1  -27.567  -40.769   31.870
34 1  -21.819  -40.009   36.506
35 1  -21.127  -41.738   32.714
36 1  -24.596  -39.477   29.922
37 1  -18.074  -41.139   31.030
38 1  -19.622  -39.836   27.276
39 1  -23.097  -36.640   28.441
40 1  -17.752  -38.392   24.705
41 1  -20.936  -37.025   22.941
42 1  -21.893  -34.080   26.142
43 1  -20.221  -35.792   19.804
44 1  -22.844  -33.265   19.672
45 1  -22.319  -30.663   23.485
46 1  -24.160  -31.324   16.626
47 1  -25.802  -29.237   19.478
48 1  -22.044  -27.488   21.387
49 1  -28.322  -26.671   18.581
50 1  -27.672  -24.460   22.122
51 1  -23.183  -23.720   22.778
52 1  -28.953  -21.398   22.422
53 1  -25.902  -20.174   23.948
54 1  -23.476  -20.652   20.360
55 1  -26.015  -17.162   25.393
56 1  -24.646  -15.147   22.227
57 1  -27.829  -16.461   18.922
58 1  -23.798  -11.420   22.582
59 1  -24.919  -10.421   19.297
60 1  -29.203  -12.868   18.422
61 1  -25.058   -7.369   18.411
62 1  -28.809   -7.030   18.085
63 1  -30.231   -3.786   14.549
ITEM: TIMESTEP
3
ITEM: NUMBER OF ATOMS
63
ITEM: BOX BOUNDS pp pp pp
-42.66729736328125 42.846702575683594
-0.49673599004745483 85.01726531982422
-19.143199920654297 66.37080383300781
ITEM: ATOMS id type xu yu zu
1 1  -39.880    6.362    8.068
2 1  -42.667    9.332    6.352
3 1  -40.938    2.475    7.746
4 1  -42.354    2.568    3.963
5 1   42.012    6.102    4.001
6 1   40.839   -0.038    3.139
7 1   38.442    1.905    1.301
8 1   38.226    5.046    3.886
9 1   39.308    3.035   -2.168
10 1   38.121   -0.083   -3.933
11 1   34.790   -0.128   -4.919
12 1   33.313    2.219   -2.187
13 1   35.102    5.757   -4.209
14 1   29.566    2.402   -1.002
15 1   29.363    6.737   -1.057
16 1   31.396    7.374   -4.807
17 1   26.998    9.014    0.024
18 1   27.777   11.680   -2.526
19 1   28.277    9.094   -5.844
20 1   25.635   14.514   -2.759
21 1   26.012   15.129   -6.888
22 1   25.967   11.160   -8.788
23 1   23.695   17.057   -8.572
24 1   24.664   15.604  -12.440
25 1   23.640   11.749  -11.436
26 1   22.964   16.890  -15.491
27 1   20.789   13.368  -15.673
28 1   24.421   11.142  -15.573
29 1   18.814   12.689  -19.143
30 1   19.627    8.612  -18.833
31 1   23.581    8.967  -18.859
32 1    8.907    9.176  -10.089
33 1   12.518   10.651  -12.835
34 1   10.398    7.449   -7.200
35 1   12.359    5.099   -9.460
36 1   14.538    7.547  -13.071
37 1   13.997    2.696   -8.310
38 1   16.556    2.091  -11.820
39 1   17.888    6.066  -12.229
40 1   19.479   -0.029  -11.176
41 1   22.082    0.728  -14.586
42 1   21.143    5.146  -14.061
43 1   25.071   -0.497  -14.787
44 1   26.695    2.750  -16.167
45 1   24.991    6.370  -13.153
46 1   29.586    2.814  -16.843
47 1   30.110    6.746  -16.076
48 1   28.510    6.756  -11.841
49 1   33.761    7.983  -16.534
50 1   33.050   11.006  -14.511
51 1   31.656    9.185  -10.616
52 1   35.384   13.939  -13.925
53 1   33.450   14.658  -10.380
54 1   34.308   10.671   -8.606
55 1   34.313   17.882   -8.051
56 1   33.116   16.099   -4.494
57 1   35.002   11.608   -4.611
58 1   33.212   17.674   -1.630
59 1   33.218   14.420    0.636
60 1   36.525   11.819   -0.870
61 1   33.531   14.433    4.102
62 1   33.207   10.535    4.448
63 1   34.486    8.879    0.094
ITEM: TIMESTEP
4
ITEM: NUMBER OF ATOMS
63
ITEM: BOX BOUNDS pp pp pp
-42.589599609375 42.924400329589844
-36.00120162963867 49.51279830932617
-5.017769813537598 80.49623107910156
ITEM: ATOMS id type xu yu zu
1 1   41.377   -2.961   -0.813
2 1   40.186   -6.097    1.620
3 1   38.307   -0.921   -0.869
4 1   36.450   -3.559   -3.459
5 1   38.161   -7.027   -1.713
6 1   32.948   -3.651   -3.189
7 1   33.171   -7.638   -4.369
8 1   35.168   -9.038   -0.838
9 1   29.777   -9.354   -5.018
10 1   31.070  -12.793   -4.450
11 1   29.044  -16.083   -4.462
12 1   30.773  -17.858   -1.999
13 1   34.090  -17.592   -4.285
14 1   29.630  -21.102   -0.805
15 1   33.130  -22.908   -1.893
16 1   36.082  -19.567   -0.974
17 1   33.939  -26.526   -0.446
18 1   37.580  -26.479   -1.409
19 1   37.898  -22.404    0.573
20 1   39.905  -28.840   -0.937
21 1   38.034  -30.176    2.769
22 1   37.425  -26.190    5.123
23 1   39.254  -32.660    4.419
24 1   36.540  -32.167    7.303
25 1   37.914  -27.997    8.353
26 1   35.519  -34.485    9.806
27 1   35.520  -32.028   12.471
28 1   39.398  -30.435   11.339
29 1   35.230  -33.432   15.954
30 1   38.711  -35.699   15.692
31 1   40.826  -32.780   14.231
32 1  -38.269  -19.096   27.996
33 1  -38.885  -15.120   25.624
34 1  -36.425  -21.627   25.634
35 1  -39.047  -21.088   23.069
36 1  -41.244  -16.805   23.275
37 1  -41.586  -23.511   23.013
38 1   42.140  -22.420   19.433
39 1  -39.553  -22.304   16.922
40 1   39.975  -24.292   18.030
41 1   39.675  -21.975   15.042
42 1  -42.310  -22.611   14.372
43 1   37.428  -22.676   12.003
44 1   38.830  -19.890    9.300
45 1  -42.181  -20.505   10.567
46 1   38.155  -20.558    5.978
47 1   40.855  -17.653    4.295
48 1  -42.475  -18.218    7.772
49 1   42.341  -18.010    1.082
50 1  -40.748  -19.980    2.684
51 1  -42.590  -22.300    5.992
52 1  -37.818  -21.496    0.810
53 1  -37.223  -24.629    3.241
54 1  -41.115  -25.153    4.401
55 1  -35.173  -27.440    2.164
56 1  -35.619  -29.052    6.022
57 1  -40.673  -29.078    6.443
58 1  -34.189  -32.491    7.159
59 1  -36.564  -32.813   10.668
60 1  -40.934  -31.320    9.952
61 1  -35.746  -35.734   13.227
62 1  -39.678  -36.001   13.897
63 1  -40.373  -35.280   18.641
ITEM: TIMESTEP
5
ITEM: NUMBER OF ATOMS
63
ITEM: BOX BOUNDS pp pp pp
-30.92449951171875 54.589500427246094
-37.106597900390625 48.40740203857422
-34.50870132446289 51.00529861450195
ITEM: ATOMS id type xu yu zu
1 1    4.586   -3.631  -12.229
2 1    6.775   -2.143   -9.199
3 1    4.468   -1.531  -15.263
4 1    3.749   -4.698  -17.413
5 1    4.903   -2.614  -21.106
6 1    5.187   -7.799  -16.542
7 1    2.271   -9.827  -18.073
8 1   -0.431   -8.428  -15.815
9 1    2.029  -13.125  -18.439
10 1   -0.835  -12.886  -21.705
11 1   -2.921  -15.795  -22.268
12 1   -6.172  -14.436  -19.797
13 1   -7.426  -11.668  -22.516
14 1   -8.679  -16.737  -19.057
15 1  -11.229  -14.587  -17.630
16 1  -11.489  -11.357  -21.025
17 1  -14.149  -15.464  -16.379
18 1  -13.673  -18.980  -18.053
19 1  -15.763  -18.139  -21.755
20 1  -15.326  -21.728  -16.564
21 1  -18.539  -19.037  -15.627
22 1  -19.127  -16.692  -19.790
23 1  -21.028  -19.843  -14.048
24 1  -23.068  -16.958  -15.395
25 1  -22.228  -18.618  -19.204
26 1  -26.257  -16.157  -14.661
27 1  -27.852  -17.899  -18.241
28 1  -25.624  -20.837  -18.154
29 1  -27.547  -16.350  -21.512
30 1  -30.924  -18.094  -22.871
31 1  -30.398  -22.012  -20.852
32 1   -5.699  -32.608  -24.645
33 1   -1.174  -33.495  -22.943
34 1   -5.582  -30.890  -27.590
35 1   -3.045  -28.594  -26.138
36 1    0.360  -31.098  -25.149
37 1   -1.802  -25.968  -27.894
38 1    1.517  -25.749  -25.241
39 1    3.745  -29.672  -26.207
40 1    3.689  -23.024  -25.085
41 1    6.982  -25.615  -24.385
42 1    6.393  -27.576  -27.842
43 1    9.986  -24.525  -23.832
44 1   11.846  -25.713  -27.059
45 1    9.948  -29.913  -28.458
46 1   11.869  -23.498  -29.769
47 1   16.145  -23.755  -29.949
48 1   16.018  -23.486  -34.390
49 1   18.292  -22.073  -27.846
50 1   20.934  -22.292  -30.707
51 1   24.890  -20.902  -28.513
52 1   21.093  -24.650  -32.603
53 1   24.631  -24.772  -32.518
54 1   25.847  -20.390  -32.010
55 1   26.207  -26.717  -34.485
56 1   24.545  -29.285  -33.612
57 1   25.554  -30.947  -28.787
58 1   21.298  -29.847  -34.509
59 1   20.152  -30.891  -31.292
60 1   23.540  -34.456  -29.603
61 1   16.949  -32.063  -30.223
62 1   18.284  -33.841  -26.537
63 1   21.197  -37.107  -28.186
ITEM: TIMESTEP
6
ITEM: NUMBER OF ATOMS
63
ITEM: BOX BOUNDS pp pp pp
-40.71710205078125 44.796897888183594
-16.405099868774414 69.10890197753906
-30.85580062866211 54.658199310302734
ITEM: ATOMS id type xu yu zu
1 1  -27.179    9.180  -29.999
2 1  -28.453    5.810  -28.645
3 1  -23.585    8.898  -30.856
4 1  -22.104    6.668  -28.001
5 1  -25.653    5.479  -25.944
6 1  -19.309    7.384  -26.130
7 1  -19.193    4.221  -24.399
8 1  -21.440    5.271  -20.560
9 1  -18.994    0.834  -25.554
10 1  -21.442   -0.993  -22.666
11 1  -22.664   -4.145  -23.511
12 1  -26.940   -3.314  -22.447
13 1  -28.191   -4.954  -26.337
14 1  -27.638   -0.213  -21.826
15 1  -30.810   -0.878  -19.983
16 1  -29.925   -5.433  -18.831
17 1  -31.609    1.161  -17.038
18 1  -34.564   -1.128  -15.865
19 1  -31.873   -4.285  -15.674
20 1  -36.199   -0.276  -12.671
21 1  -37.508   -3.711  -11.692
22 1  -34.302   -6.408  -13.072
23 1  -38.498   -4.147   -8.508
24 1  -36.840   -7.260   -8.421
25 1  -37.722   -8.205  -12.670
26 1  -37.601   -9.613   -5.792
27 1  -38.330  -12.806   -8.395
28 1  -40.717  -11.139  -11.068
29 1  -38.801  -15.973   -7.249
30 1   43.254  -16.405   -8.881
31 1   41.651  -12.478   -8.906
32 1   -4.951   13.922   27.069
33 1   -2.533   13.094   22.490
34 1   -6.828   17.108   26.219
35 1   -3.184   19.207   26.173
36 1   -3.191   23.576   28.993
37 1   -1.504   19.813   23.328
38 1    1.194   22.626   24.482
39 1   -1.680   25.890   26.494
40 1    3.487   24.254   22.420
41 1    5.230   25.681   25.574
42 1    1.582   27.591   26.679
43 1    8.067   27.833   24.924
44 1    7.795   28.166   20.731
45 1    9.767   32.596   19.705
46 1    5.023   27.301   19.190
47 1    6.680   25.736   16.191
48 1    8.417   29.352   14.680
49 1    8.828   23.269   16.297
50 1   12.028   25.245   14.366
51 1   10.384   27.917   11.157
52 1   15.345   23.440   13.540
53 1   14.476   22.452   10.113
54 1   12.170   25.454    9.275
55 1   17.412   21.793    7.680
56 1   15.977   18.541    6.051
57 1   17.848   18.653    1.832
58 1   16.756   15.662    7.680
59 1   16.642   13.301    4.438
60 1   19.676   15.135    1.103
61 1   16.367    9.709    4.363
62 1   17.250    9.411    0.058
63 1   20.400   12.157   -0.935
ITEM: TIMESTEP
7
ITEM: NUMBER OF ATOMS
63
ITEM: BOX BOUNDS pp pp pp
-42.483402252197266 43.03059768676758
-14.066699981689453 71.44729614257812
-40.89419937133789 44.61980056762695
ITEM: ATOMS id type xu yu zu
1 1  -31.668  -12.418  -40.175
2 1  -33.350   -8.883  -40.894
3 1  -30.908  -14.067   42.116
4 1  -31.715  -11.317   39.764
5 1  -35.486  -10.043   41.435
6 1  -32.088  -12.133   35.931
7 1  -33.116   -8.568   34.562
8 1  -36.006   -8.246   38.059
9 1  -31.042   -6.321   33.675
10 1  -32.456   -6.341   29.887
11 1  -30.855   -4.970   27.199
12 1  -34.102   -3.229   25.625
13 1  -34.194   -5.743   22.357
14 1  -37.181   -2.780   27.567
15 1  -38.634   -0.839   24.611
16 1  -37.603   -3.542   20.905
17 1  -42.472   -0.256   24.541
18 1   42.547   -0.321   20.669
19 1  -41.137   -4.142   20.903
20 1   39.474   -0.197   19.410
21 1   39.371    3.438   18.744
22 1  -42.483    3.855   15.703
23 1   36.987    4.762   17.274
24 1   38.717    7.560   15.205
25 1   41.326    5.031   12.425
26 1   36.971   10.065   13.779
27 1   39.279   10.731   11.415
28 1   39.332    7.589    9.677
29 1   39.219   13.606    9.428
30 1   35.610   13.035    7.952
31 1   36.486   10.619    4.897
32 1  -37.896   -9.469   -0.964
33 1  -38.047   -4.504    0.660
34 1  -35.810  -11.445    1.455
35 1  -37.592  -10.598    4.363
36 1  -37.626   -5.619    4.559
37 1  -36.978  -12.184    7.672
38 1  -34.326   -9.650    9.151
39 1  -35.399   -5.330    7.464
40 1  -30.891  -10.631    8.747
41 1  -29.260   -7.436   10.750
42 1  -32.233   -4.582    8.907
43 1  -29.408   -7.710   14.662
44 1  -29.408   -3.649   15.308
45 1  -32.585   -2.105   12.914
46 1  -29.820   -2.125   18.852
47 1  -30.601    1.298   18.320
48 1  -33.447    0.138   15.718
49 1  -31.919    3.558   20.846
50 1  -33.785    5.783   17.458
51 1  -36.694    2.451   14.755
52 1  -31.543    8.006   15.442
53 1  -34.897    9.576   13.405
54 1  -37.160    5.654   13.456
55 1  -34.479   11.231   10.533
56 1  -35.405    8.132    7.782
57 1  -39.055    5.857    9.680
58 1  -35.799    9.297    3.967
59 1  -39.693    7.735    3.271
60 1  -40.179    4.404    6.356
61 1  -40.278    6.264   -0.226
62 1  -42.365    2.971    1.421
63 1   40.956    4.918    5.169
ITEM: TIMESTEP
8
ITEM: NUMBER OF ATOMS
63
ITEM: BOX BOUNDS pp pp pp
-7.086319923400879 78.42768096923828
-41.339599609375 44.174400329589844
-0.15164999663829803 85.36235046386719
ITEM: ATOMS id type xu yu zu
1 1   -0.691    2.163    1.531
2 1   -4.775    1.642   -0.152
3 1    0.304    5.430    1.711
4 1   -3.543    7.229    3.012
5 1   -6.295    4.582    2.029
6 1   -4.601   10.694    3.141
7 1   -4.879   10.629    6.915
8 1   -5.503   15.071    6.567
9 1   -7.086    8.674    8.680
10 1   -5.037    5.278    8.318
11 1   -6.778    2.394    8.278
12 1   -3.615    0.232    8.841
13 1   -2.327    2.391   11.910
14 1   -3.384   -3.640    9.222
15 1   -1.006   -3.469   12.601
16 1   -3.377   -0.059   15.458
17 1   -0.283   -6.620   14.341
18 1   -1.047   -5.124   18.133
19 1   -0.330   -1.356   17.552
20 1    0.334   -6.427   20.847
21 1    2.625   -3.141   21.677
22 1   -1.324   -0.052   21.420
23 1    5.041   -2.923   24.308
24 1    3.693    0.596   25.492
25 1   -0.344   -0.283   25.968
26 1    4.497    3.360   23.862
27 1    0.633    4.632   24.021
28 1   -0.126    3.441   27.896
29 1    0.037    7.806   23.220
30 1   -1.836    8.699   26.193
31 1    0.972    6.990   28.867
32 1   25.154   26.307   26.408
33 1   20.710   26.385   25.562
34 1   26.179   28.543   29.574
35 1   28.746   31.045   27.407
36 1   26.270   33.261   24.044
37 1   30.525   33.580   29.255
38 1   29.623   37.174   27.298
39 1   25.249   36.221   26.022
40 1   29.833   40.486   29.166
41 1   27.053   42.175   26.978
42 1   24.168   39.264   27.772
43 1   26.193  -40.208   27.470
44 1   22.239  -40.551   27.825
45 1   20.266  -39.999   23.965
46 1   20.436  -39.461   30.695
47 1   17.451  -41.340   30.174
48 1   17.362  -40.366   26.324
49 1   14.717  -41.171   32.030
50 1   13.888   40.383   30.827
51 1   13.926   40.195   26.726
52 1   10.910   38.715   32.403
53 1    8.206   39.764   29.951
54 1   10.512   38.212   26.627
55 1    5.161   38.724   30.299
56 1    5.157   36.477   27.401
57 1    9.451   34.357   27.821
58 1    2.571   34.034   26.629
59 1    3.778   31.386   29.532
60 1    8.525   30.830   29.767
61 1    2.645   31.876   33.009
62 1    6.293   30.148   34.337
63 1    9.356   32.999   32.907
ITEM: TIMESTEP
9
ITEM: NUMBER OF ATOMS
63
ITEM: BOX BOUNDS pp pp pp
-40.9734001159668 44.54059982299805
12.15530014038086 97.66929626464844
-42.74129867553711 42.772701263427734
ITEM: ATOMS id type xu yu zu
1 1  -20.218   20.926  -38.345
2 1  -17.690   22.348  -36.022
3 1  -23.979   20.931  -37.016
4 1  -23.858   24.348  -34.773
5 1  -28.026   24.905  -34.909
6 1  -22.027   27.162  -35.613
7 1  -23.751   27.155  -39.547
8 1  -27.294   26.873  -37.989
9 1  -23.042   29.854  -41.803
10 1  -26.555   31.293  -41.001
11 1  -27.329   33.973  -42.568
12 1  -28.062   31.875   39.577
13 1  -30.654   28.911   41.564
14 1  -29.190   33.210   36.625
15 1  -31.028   29.630   35.139
16 1  -33.640   27.775   38.797
17 1  -32.553   29.727   31.595
18 1  -35.462   27.620   32.381
19 1  -35.925   29.151   36.315
20 1  -38.306   27.119   30.025
21 1  -40.973   27.787   32.810
22 1  -39.187   31.332   35.079
23 1   40.819   27.859   32.278
24 1   40.321   28.179   35.802
25 1   42.612   31.357   35.885
26 1   36.835   28.269   36.944
27 1   37.897   29.431   40.673
28 1   40.430   32.184   39.852
29 1   35.569   29.989  -42.741
30 1   33.947   33.474   40.812
31 1   37.628   35.110   39.636
32 1    3.537   12.813  -11.465
33 1    4.684   17.133  -10.270
34 1   -0.252   12.155  -11.943
35 1   -0.930   13.517   -7.948
36 1    1.361   17.410   -8.007
37 1   -4.452   13.967   -6.383
38 1   -3.158   15.186   -3.260
39 1   -0.035   18.542   -4.861
40 1   -6.007   16.993   -1.501
41 1   -3.414   18.847    0.742
42 1   -1.699   21.201   -2.802
43 1   -4.186   20.713    3.822
44 1   -0.991   23.187    3.271
45 1   -1.301   24.972   -1.153
46 1   -0.015   25.323    5.537
47 1    1.552   28.219    3.105
48 1    2.130   25.784    0.064
49 1   -0.261   30.884    2.695
50 1    1.585   32.097   -0.627
51 1    1.518   28.108   -3.533
52 1    0.663   35.147   -2.405
53 1    2.940   34.443   -5.620
54 1    0.798   30.792   -5.941
55 1    2.186   37.065   -8.481
56 1    3.034   34.895  -11.181
57 1    2.419   30.296   -9.792
58 1    1.785   35.236  -14.599
59 1    2.564   31.430  -15.434
60 1   -0.237   28.951  -12.006
61 1    1.478   30.173  -18.706
62 1    0.660   26.797  -16.945
63 1   -3.164   27.355  -13.590
ITEM: TIMESTEP
10
ITEM: NUMBER OF ATOMS
63
ITEM: BOX BOUNDS pp pp pp
-42.89899826049805 42.6150016784668
-4.875969886779785 80.63803100585938
-43.01479721069336 42.499202728271484
ITEM: ATOMS id type xu yu zu
1 1  -20.241   15.143   22.539
2 1  -24.323   15.606   24.365
3 1  -17.635   16.799   24.141
4 1  -19.943   19.564   25.811
5 1  -22.871   16.840   27.906
6 1  -18.696   21.733   27.660
7 1  -17.590   18.828   30.338
8 1  -21.755   17.930   31.311
9 1  -15.372   19.899   33.401
10 1  -14.318   16.085   34.602
11 1  -13.283   15.543   37.760
12 1  -15.377   12.363   38.500
13 1  -18.678   13.061   35.550
14 1  -15.919   11.594   41.908
15 1  -19.685   13.232   41.593
16 1  -19.257   17.570   40.305
17 1  -22.204   13.396  -41.217
18 1  -21.343   17.296  -40.458
19 1  -22.608   18.527   41.626
20 1  -22.959   19.159  -37.569
21 1  -22.474   22.591  -39.299
22 1  -25.434   21.930   42.942
23 1  -23.266   25.340  -37.244
24 1  -23.479   28.015  -40.609
25 1  -26.139   25.538  -42.532
26 1  -24.287   31.292  -39.986
27 1  -25.764   32.177   41.851
28 1  -27.992   29.188   42.072
29 1  -27.765   35.077   41.262
30 1  -29.300   33.174   37.660
31 1  -26.612   34.364   35.188
32 1  -16.643   -2.484   23.327
33 1  -18.733    1.362   24.218
34 1  -18.350   -4.876   25.786
35 1  -22.010   -3.323   26.521
36 1  -22.113    1.010   26.171
37 1  -23.803   -4.456   29.257
38 1  -24.910   -0.866   30.296
39 1  -21.163    2.040   29.544
40 1  -26.019   -0.306   33.355
41 1  -25.008    3.151   33.209
42 1  -21.570    1.728   33.274
43 1  -25.587    5.250   35.818
44 1  -26.935    3.246   38.359
45 1  -25.200    5.537  -42.988
46 1  -30.129    2.589   39.021
47 1  -29.783    2.933   42.288
48 1  -28.826    6.910  -43.015
49 1  -31.988    1.443  -41.012
50 1  -31.015    3.866  -38.427
51 1  -31.817    7.589  -40.103
52 1  -32.839    3.412  -34.972
53 1  -32.042    7.020  -34.050
54 1  -34.042    8.649  -37.274
55 1  -33.396    8.399  -30.770
56 1  -35.175   11.953  -32.400
57 1  -38.369    9.986  -35.139
58 1  -36.615   14.715  -30.200
59 1  -39.934   14.839  -32.307
60 1  -41.813   10.141  -33.311
61 1  -42.899   17.163  -31.467
62 1   40.560   16.137  -34.219
63 1   40.348   11.344  -34.348
ITEM: TIMESTEP
11
ITEM: NUMBER OF ATOMS
63
ITEM: BOX BOUNDS pp pp pp
-42.52790069580078 42.98609924316406
-37.637298583984375 47.87670135498047
-2.075969934463501 83.43802642822266
ITEM: ATOMS id type xu yu zu
1 1   40.931    7.536   16.592
2 1   37.874    4.622   15.003
3 1   41.582    7.843   20.096
4 1   41.556    3.849   20.403
5 1   37.979    3.056   18.613
6 1   41.719    2.239   23.705
7 1  -42.528   -1.569   22.399
8 1   40.718   -3.894   25.007
9 1  -38.746   -2.644   22.143
10 1  -39.622   -5.283   19.400
11 1  -37.387   -7.323   18.738
12 1  -39.583  -10.639   18.519
13 1   42.656   -8.764   16.301
14 1  -38.379  -13.587   17.459
15 1  -41.480  -14.829   17.371
16 1   41.596  -12.307   14.336
17 1  -41.436  -18.626   16.015
18 1   40.079  -18.642   15.116
19 1   40.350  -15.142   12.469
20 1   38.400  -21.503   14.441
21 1   34.722  -19.833   13.424
22 1   36.394  -16.357   10.343
23 1   32.046  -21.806   12.511
24 1   32.601  -21.967    8.892
25 1   33.875  -18.100    7.928
26 1   30.152  -23.016    6.456
27 1   30.834  -19.642    4.292
28 1   29.908  -16.672    7.472
29 1   28.834  -18.979    1.316
30 1   25.493  -19.014    2.836
31 1   26.314  -16.450    6.233
32 1   30.567  -37.296   10.908
33 1   33.979  -34.711    9.304
34 1   28.166  -37.637    8.343
35 1   28.014  -34.401    7.301
36 1   32.767  -32.855    6.425
37 1   25.451  -33.625    4.793
38 1   27.317  -29.809    3.872
39 1   31.554  -30.577    4.116
40 1   26.819  -27.897    1.223
41 1   29.545  -25.649    2.127
42 1   32.413  -28.451    1.306
43 1   29.953  -22.795    0.671
44 1   34.071  -22.845   -0.069
45 1   35.676  -22.475    4.024
46 1   35.584  -20.397   -2.076
47 1   37.915  -18.798    0.199
48 1   38.998  -22.730    2.162
49 1   40.626  -16.826   -0.991
50 1   38.751  -13.812   -0.396
51 1   35.326  -14.935    3.022
52 1   39.884  -10.178   -0.155
53 1   36.270   -8.677    1.459
54 1   33.903  -10.067   -1.556
55 1   35.476   -9.754    4.190
56 1   32.586   -8.175    4.229
57 1   29.587  -11.224    4.301
58 1   32.063   -5.481    6.510
59 1   28.539   -6.455    7.606
60 1   28.117  -11.480    7.935
61 1   27.089   -4.997   10.004
62 1   23.667   -6.966    9.640
63 1   24.795  -11.802    9.279
ITEM: TIMESTEP
12
ITEM: NUMBER OF ATOMS
63
ITEM: BOX BOUNDS pp pp pp
-42.79339599609375 42.720603942871094
-42.92469787597656 42.58930206298828
4.0589799880981445 89.57298278808594
ITEM: ATOMS id type xu yu zu
1 1   38.261  -24.483   14.161
2 1   38.933  -27.535   11.839
3 1   39.147  -24.848   17.710
4 1  -42.793  -27.423   17.253
5 1   41.719  -29.156   14.032
6 1  -41.871  -30.079   20.133
7 1   40.420  -31.996   19.732
8 1   40.974  -32.550   15.707
9 1   39.671  -35.138   21.569
10 1   36.943  -36.394   19.203
11 1   34.298  -38.595   19.674
12 1   34.005  -39.708   15.978
13 1   30.612  -41.344   16.798
14 1   34.423  -37.721   13.426
15 1   31.932  -40.222   10.806
16 1   28.437  -41.522   13.251
17 1   31.037  -39.029    7.209
18 1   27.970  -41.914    7.168
19 1   26.542  -40.376   10.281
20 1   25.467  -42.033    4.059
21 1   23.111   41.929    6.148
22 1   22.338  -40.000    9.276
23 1   19.767   40.946    4.681
24 1   17.888   41.387    7.429
25 1   18.904  -40.019    8.309
26 1   14.574   40.645    7.542
27 1   13.133  -41.808    9.628
28 1   14.987  -38.780    8.190
29 1    9.226  -41.742   10.224
30 1    9.136  -37.733   10.843
31 1   11.600  -36.535    8.334
32 1   15.963  -26.993    8.640
33 1   15.128  -31.716    7.831
34 1   18.370  -26.765   10.840
35 1   16.945  -29.726   12.791
36 1   16.768  -33.906   10.261
37 1   17.717  -30.676   16.540
38 1   16.314  -34.286   16.450
39 1   18.001  -36.192   12.676
40 1   16.556  -36.631   19.346
41 1   16.437  -39.616   17.026
42 1   20.021  -38.452   14.820
43 1   17.392  -42.925   18.885
44 1   18.784   40.597   15.960
45 1   22.484  -41.781   14.479
46 1   19.636   37.430   16.498
47 1   22.174   37.233   13.692
48 1   24.333   40.553   15.248
49 1   23.734   34.527   13.415
50 1   26.910   36.266   12.019
51 1   28.109   39.017   15.222
52 1   29.741   33.704   11.399
53 1   29.973   32.899   15.339
54 1   30.368   36.571   16.522
55 1   32.158   30.436   16.858
56 1   30.235   30.346   20.313
57 1   26.144   28.160   18.779
58 1   31.583   28.282   22.885
59 1   29.395   25.750   22.349
60 1   24.572   27.230   22.050
61 1   29.699   24.335   18.862
62 1   33.059   23.292   19.043
63 1   35.499   27.742   20.112
ITEM: TIMESTEP
13
ITEM: NUMBER OF ATOMS
63
ITEM: BOX BOUNDS pp pp pp
-36.61770248413086 48.896297454833984
5.365009784698486 90.87901306152344
-42.47779846191406 43.03620147705078
ITEM: ATOMS id type xu yu zu
1 1  -22.360    6.790   21.292
2 1  -20.298   10.532   22.411
3 1  -26.011    6.905   22.007
4 1  -26.257   11.036   21.294
5 1  -23.647   12.151   23.999
6 1  -29.416   12.223   21.411
7 1  -28.110   15.962   23.067
8 1  -25.323   14.904   25.995
9 1  -30.642   18.489   24.098
10 1  -27.977   21.761   24.810
11 1  -29.592   24.323   26.041
12 1  -31.128   22.631   28.903
13 1  -27.544   20.505   30.299
14 1  -33.233   24.758   31.018
15 1  -32.090   22.807   34.752
16 1  -27.379   21.422   34.283
17 1  -33.083   24.269   38.019
18 1  -29.884   22.757   40.233
19 1  -26.667   24.118   37.242
20 1  -29.465   23.671  -42.040
21 1  -25.880   22.796  -41.771
22 1  -23.925   24.880   40.448
23 1  -24.577   23.610  -39.022
24 1  -20.952   24.125  -40.494
25 1  -21.704   27.327   42.459
26 1  -18.202   24.432  -38.802
27 1  -15.966   24.721  -42.478
28 1  -17.783   28.535   42.348
29 1  -12.280   24.575  -42.150
30 1  -12.424   28.075  -41.278