ITEM: TIMESTEP
0
ITEM: NUMBER OF ATOMS
64
ITEM: BOX BOUNDS pp pp pp
-23.980701446533203 61.53329849243164
-1.8985199928283691 83.615478515625
-42.901100158691406 42.61289978027344
ITEM: ATOMS id type xu yu zu
1 1   11.575   11.519   39.872
2 1    8.696   12.551   42.668
3 1   11.120    8.373   37.872
4 1    9.410    6.433   41.331
5 1    6.579    9.416   41.459
6 1    8.373    3.229   40.657
7 1    5.089    3.602   42.291
8 1    3.862    7.363   40.148
9 1    2.396    1.088   42.576
10 1   -0.702    4.223  -42.182
11 1   -0.318    7.053   40.193
12 1   -4.108    3.351  -41.085
13 1   -5.272    7.167  -42.438
14 1   -3.832    6.366   39.420
15 1   -8.288    8.205  -42.408
16 1   -7.408   10.750   40.341
17 1   -6.446    8.328   36.337
18 1  -10.172   12.863   39.599
19 1   -8.794   13.770   36.558
20 1   -9.859    9.958   35.317
21 1  -10.592   16.121   34.619
22 1  -10.347   14.501   30.795
23 1  -11.578    9.714   31.444
24 1  -12.338   16.149   27.931
25 1  -12.047   13.095   25.732
26 1  -14.027   10.837   28.712
27 1  -13.639   13.573   22.551
28 1  -14.491   10.086   22.497
29 1  -16.969   10.314   25.721
30 1  -15.851    8.119   19.577
31 1  -17.171    5.357   21.573
32 1  -20.098    7.743   23.711
33 1  -23.981    5.604   31.229
34 1  -20.347    7.422   29.153
35 1  -22.460    3.089   33.747
36 1  -19.601    1.710   31.104
37 1  -17.381    5.312   29.108
38 1  -17.406   -1.280   31.681
39 1  -14.898    0.047   28.965
40 1  -14.114    4.960   30.192
41 1  -11.466   -1.899   28.424
42 1   -9.670    1.634   27.034
43 1  -10.721    3.930   30.334
44 1   -6.723    1.726   26.035
45 1   -6.064    5.733   26.585
46 1   -7.258    6.387   31.057
47 1   -3.024    7.311   25.226
48 1   -3.156   10.076   28.097
49 1   -3.645    7.729   31.032
50 1   -0.457   12.474   28.471
51 1   -2.443   13.823   31.999
52 1   -1.845    9.993   34.650
53 1   -1.310   16.981   33.934
54 1   -2.711   15.743   37.121
55 1   -0.176   12.114   37.126
56 1   -2.420   17.525   39.688
57 1   -2.115   14.993  -42.901
58 1    1.138   12.646   41.251
59 1   -1.710   15.819  -39.198
60 1   -1.007   12.004  -38.159
61 1    2.621   11.477  -40.896
62 1    0.010   11.229  -34.565
63 1    2.387    8.822  -35.499
64 1    5.624   11.100  -38.701
ITEM: TIMESTEP
1
ITEM: NUMBER OF ATOMS
64
ITEM: BOX BOUNDS pp pp pp
-20.269201278686523 65.24479675292969
-1.927859902381897 83.58614349365234
-33.12310028076172 52.390899658203125
ITEM: ATOMS id type xu yu zu
1 1  -10.672   18.056  -11.711
2 1  -13.117   16.060  -14.521
3 1   -7.634   15.964  -10.458
4 1   -8.886   12.426  -10.595
5 1  -11.077   13.017  -13.707
6 1   -6.824    9.820  -10.455
7 1   -8.862    7.472  -12.386
8 1   -8.811   10.087  -15.058
9 1   -6.910    4.024  -13.418
10 1   -8.602    3.864  -16.500
11 1   -7.841    7.867  -18.448
12 1   -7.739    0.759  -18.619
13 1   -8.588    2.084  -21.920
14 1   -6.274    5.420  -20.759
15 1   -7.135    0.145  -24.745
16 1   -6.505    2.918  -26.856
17 1   -3.695    5.588  -24.097
18 1   -5.671    2.584  -29.879
19 1   -4.428    6.080  -30.136
20 1   -1.437    5.853  -27.091
21 1   -3.358    7.553  -33.123
22 1   -0.507   10.077  -31.147
23 1    2.464    6.968  -28.330
24 1    1.677   12.273  -32.948
25 1    3.591   12.605  -30.102
26 1    5.379    8.572  -30.012
27 1    6.015   15.727  -29.972
28 1    9.240   14.339  -28.199
29 1    9.004   10.384  -29.725
30 1   12.057   15.734  -28.391
31 1   13.140   12.451  -26.872
32 1   12.829   10.533  -30.040
33 1   14.404    0.161  -32.298
34 1   12.550    5.040  -31.369
35 1   13.464   -1.928  -29.666
36 1   12.906    0.905  -26.792
37 1   10.021    4.700  -28.857
38 1   12.135   -0.011  -23.486
39 1   11.307    3.921  -22.240
40 1    8.334    5.326  -25.902
41 1   10.166    4.977  -19.095
42 1    8.113    8.536  -20.668
43 1    5.738    6.410  -23.638
44 1    6.613   10.856  -18.272
45 1    4.272   12.782  -21.046
46 1    1.870    8.684  -22.806
47 1    2.203   15.077  -20.366
48 1   -0.008   14.504  -23.283
49 1   -1.081   10.729  -22.155
50 1   -3.158   16.922  -23.592
51 1   -5.242   14.662  -25.781
52 1   -5.253   11.194  -23.210
53 1   -8.262   15.533  -27.019
54 1  -10.245   11.536  -26.450
55 1   -8.879   11.700  -22.740
56 1  -13.700   11.321  -27.180
57 1  -14.936    8.972  -23.654
58 1  -12.418   10.761  -20.374
59 1  -18.676    8.394  -22.744
60 1  -17.666    7.606  -18.818
61 1  -14.748   10.891  -17.391
62 1  -20.269    7.040  -16.353
63 1  -17.929    7.950  -13.416
64 1  -15.604    3.793  -12.432
ITEM: TIMESTEP
2
ITEM: NUMBER OF ATOMS
64
ITEM: BOX BOUNDS pp pp pp
-37.77260208129883 47.741397857666016
-29.275501251220703 56.23849868774414
-42.54429626464844 42.969703674316406
ITEM: ATOMS id type xu yu zu
1 1  -32.500  -26.150   31.388
2 1  -29.515  -23.447   33.434
3 1  -35.732  -25.585   32.918
4 1  -34.511  -21.756   34.963
5 1  -31.856  -23.322   36.794
6 1  -36.992  -19.989   37.052
7 1  -36.175  -21.627   40.004
8 1  -32.554  -20.610   39.479
9 1  -37.773  -20.464  -42.544
10 1  -34.789  -20.938  -40.161
11 1  -30.754  -18.962  -42.410
12 1  -34.629  -19.811  -36.339
13 1  -30.664  -19.791  -36.088
14 1  -30.369  -17.232  -39.274
15 1  -29.395  -18.500  -33.059
16 1  -26.278  -17.713  -34.671
17 1  -27.109  -14.354  -38.237
18 1  -23.406  -16.641  -32.980
19 1  -21.458  -15.518  -35.934
20 1  -24.413  -12.441  -36.425
21 1  -18.529  -14.321  -35.465
22 1  -18.076  -12.343  -38.662
23 1  -21.876   -9.979  -38.618
24 1  -14.966  -10.237  -39.007
25 1  -17.160   -7.284  -40.976
26 1  -19.723   -6.852  -37.421
27 1  -15.165   -4.441   43.280
28 1  -18.162   -2.069  -41.656
29 1  -18.472   -2.972  -37.593
30 1  -17.600    0.918  -42.215
31 1  -20.304    2.230  -39.797
32 1  -18.690    1.212  -36.308
33 1  -21.244   -1.580  -26.445
34 1  -19.516   -1.032  -31.282
35 1  -24.924   -1.791  -27.037
36 1  -25.463   -0.363  -31.005
37 1  -22.084   -2.159  -33.660
38 1  -28.619   -0.964  -32.411
39 1  -27.533   -0.781  -35.692
40 1  -24.560   -3.841  -35.831
41 1  -29.501   -0.920  -38.321
42 1  -27.122   -2.443  -40.790
43 1  -26.422   -6.001  -38.178
44 1  -28.385   -3.430   41.192
45 1  -25.580   -6.720   40.970
46 1  -25.779   -9.082  -40.838
47 1  -25.663   -8.614   37.504
48 1  -23.047  -11.314   39.106
49 1  -25.934  -11.750   41.753
50 1  -21.550  -13.832   37.372
51 1  -21.384  -16.009   40.309
52 1  -25.863  -16.029   42.399
53 1  -19.669  -19.484   39.778
54 1  -21.585  -20.866  -42.538
55 1  -25.033  -19.498   41.527
56 1  -21.405  -24.630  -41.450
57 1  -24.969  -24.530  -39.756
58 1  -27.719  -22.895   42.184
59 1  -26.399  -27.423  -38.264
60 1  -30.520  -26.835  -39.124
61 1  -30.470  -25.566   41.866
62 1  -32.851  -29.276  -38.018
63 1  -35.386  -29.136  -40.716
64 1  -33.004  -28.135   40.500
ITEM: TIMESTEP
3
ITEM: NUMBER OF ATOMS
64
ITEM: BOX BOUNDS pp pp pp
-10.104899406433105 75.40910339355469
-29.043901443481445 56.47010040283203
-7.140200138092041 78.3738021850586
ITEM: ATOMS id type xu yu zu
1 1   19.309   -7.220    6.911
2 1   17.333   -7.425   10.764
3 1   18.220   -9.661    4.593
4 1   17.504  -12.906    7.399
5 1   15.044  -11.096   10.061
6 1   16.384  -16.441    5.899
7 1   14.618  -17.482    9.376
8 1   12.366  -13.488    9.055
9 1   13.021  -20.776   10.014
10 1   10.256  -19.381   12.577
11 1    8.642  -15.043   10.423
12 1    7.194  -21.243   14.068
13 1    4.470  -18.078   14.472
14 1    5.021  -16.622   10.733
15 1    1.415  -19.243   15.392
16 1   -0.407  -16.553   14.288
17 1    1.047  -16.113    9.706
18 1   -4.521  -16.985   14.189
19 1   -5.230  -14.324   11.352
20 1   -2.460  -16.360    8.474
21 1   -8.565  -13.848    9.904
22 1   -6.998  -12.319    6.436
23 1   -4.718  -16.010    4.934
24 1   -9.468  -10.986    3.832
25 1   -7.163  -12.258    0.606
26 1   -7.433  -16.325    2.324
27 1   -8.202  -12.030   -2.996
28 1   -5.484  -14.817   -3.572
29 1   -7.306  -18.163   -1.223
30 1   -4.328  -15.858   -7.140
31 1   -4.094  -19.690   -6.873
32 1   -7.397  -20.681   -4.594
33 1  -10.105  -27.663    2.126
34 1   -9.654  -23.750   -0.733
35 1   -7.080  -29.044    3.446
36 1   -5.079  -27.527    0.683
37 1   -6.222  -23.119    0.677
38 1   -1.890  -27.663    0.562
39 1   -1.109  -24.249   -0.895
40 1   -3.430  -21.297    1.931
41 1    2.012  -23.182   -1.601
42 1    0.900  -19.128   -1.418
43 1   -0.219  -19.243    2.362
44 1    3.099  -16.763   -2.290
45 1    1.748  -13.743   -0.929
46 1    0.595  -15.078    3.548
47 1    3.679  -10.816   -0.417
48 1    1.826   -9.368    2.968
49 1    3.089  -12.994    4.952
50 1    2.929   -5.945    4.594
51 1    2.432   -7.244    8.236
52 1    4.263  -11.255    8.689
53 1    2.646   -5.347   11.069
54 1    4.056   -7.643   14.066
55 1    6.719   -9.697   11.039
56 1    5.442   -6.018   17.183
57 1    8.012   -8.839   17.969
58 1   10.060   -9.385   13.858
59 1    9.827   -7.943   20.323
60 1   12.419  -11.057   19.601
61 1   13.741  -10.319   15.517
62 1   15.578  -11.677   21.931
63 1   17.450  -12.887   19.126
64 1   17.309   -9.888   15.598
ITEM: TIMESTEP
4
ITEM: NUMBER OF ATOMS
64
ITEM: BOX BOUNDS pp pp pp
-39.831298828125 45.682701110839844
-37.27130126953125 48.242698669433594
-16.85540008544922 68.65859985351562
ITEM: ATOMS id type xu yu zu
1 1  -39.831  -31.549   -0.263
2 1  -39.602  -28.398   -3.552
3 1  -39.577  -35.144   -1.597
4 1  -35.341  -34.964   -2.044
5 1  -35.461  -32.901   -5.814
6 1  -33.919  -32.872    0.423
7 1  -31.086  -32.453   -1.262
8 1  -32.731  -30.330   -4.211
9 1  -27.753  -31.391    0.170
10 1  -26.023  -30.653   -3.348
11 1  -29.389  -28.277   -5.536
12 1  -22.753  -29.426   -3.555
13 1  -23.348  -27.289   -7.083
14 1  -26.541  -25.511   -5.804
15 1  -21.013  -25.194   -9.009
16 1  -23.528  -22.884  -10.372
17 1  -25.980  -21.386   -6.877
18 1  -22.666  -20.003  -12.813
19 1  -26.452  -17.957  -12.155
20 1  -25.781  -17.799   -7.636
21 1  -26.954  -14.757  -13.931
22 1  -29.645  -13.565  -11.830
23 1  -27.712  -13.637   -7.633
24 1  -31.998  -10.575  -12.874
25 1  -32.678   -9.403   -8.902
26 1  -28.724  -10.207   -7.845
27 1  -34.250   -6.091   -8.039
28 1  -32.314   -5.672   -4.384
29 1  -28.963   -6.674   -5.570
30 1  -32.299   -2.944   -2.382
31 1  -29.158   -4.051   -0.339
32 1  -27.086   -0.974   -1.347
33 1  -18.402   -4.016   -5.015
34 1  -22.579   -5.932   -6.799
35 1  -16.349   -6.349   -3.290
36 1  -19.375   -7.892   -1.220
37 1  -23.700   -8.474   -4.031
38 1  -19.131  -10.510    1.002
39 1  -23.378  -10.500    1.265
40 1  -25.048  -11.588   -3.036
41 1  -25.472  -12.551    3.878
42 1  -29.272  -12.744    1.523
43 1  -27.260  -14.035   -1.675
44 1  -31.610  -14.437    2.731
45 1  -32.648  -15.178   -0.744
46 1  -29.541  -17.356   -2.777
47 1  -35.517  -16.973   -1.071
48 1  -34.934  -17.601   -5.086
49 1  -31.579  -20.312   -4.315
50 1  -37.299  -19.360   -6.755
51 1  -34.715  -20.246   -9.962
52 1  -31.513  -22.813   -7.580
53 1  -35.782  -21.965  -12.768
54 1  -32.385  -23.945  -13.245
55 1  -32.587  -25.474   -9.640
56 1  -32.394  -26.590  -16.032
57 1  -29.758  -29.308  -14.053
58 1  -32.045  -29.841  -10.368
59 1  -28.465  -32.666  -15.114
60 1  -32.432  -34.269  -15.488
61 1  -34.632  -33.796  -11.275
62 1  -33.198  -37.271  -16.382
63 1  -36.683  -36.337  -16.855
64 1  -38.525  -34.672  -12.650
ITEM: TIMESTEP
5
ITEM: NUMBER OF ATOMS
64
ITEM: BOX BOUNDS pp pp pp
-43.02909851074219 42.484901428222656
-41.83839797973633 43.675601959228516
11.921199798583984 97.43519592285156
ITEM: ATOMS id type xu yu zu
1 1   -8.366   38.621   16.057
2 1  -10.257   39.767   19.010
3 1   -9.169   35.675   14.375
4 1   -9.963   34.236   17.830
5 1  -12.668   36.855   19.607
6 1  -11.104   31.392   17.914
7 1  -12.772   31.582   21.467
8 1  -15.294   34.698   20.853
9 1  -14.569   28.617   22.747
10 1  -16.439   30.478   25.647
11 1  -18.743   33.843   23.200
12 1  -18.320   29.030   28.434
13 1  -21.141   32.129   28.730
14 1  -22.045   32.559   24.450
15 1  -23.556   32.223   31.004
16 1  -26.099   35.037   29.274
17 1  -26.128   34.032   25.162
18 1  -29.238   35.688   30.866
19 1  -30.190   37.346   27.557
20 1  -29.798   34.182   25.194
21 1  -32.992   39.305   27.488
22 1  -33.612   38.806   23.701
23 1  -33.376   34.179   23.182
24 1  -36.775   40.450   21.864
25 1  -35.951   37.912   18.568
26 1  -36.167   34.701   20.849
27 1  -38.159   38.383   15.675
28 1  -37.734   34.889   14.593
29 1  -39.155   33.317   18.094
30 1  -39.223   33.716   11.921
31 1  -38.900   30.330   12.911
32 1  -41.484   30.600   16.499
33 1  -43.029   26.213   25.461
34 1  -39.684   30.110   24.606
35 1  -41.314   23.646   25.874
36 1  -39.316   23.864   22.373
37 1  -39.006   28.803   21.282
38 1  -35.722   22.137   21.566
39 1  -35.210   24.406   18.836
40 1  -35.412   28.768   20.816
41 1  -32.681   23.967   16.853
42 1  -32.779   27.917   15.932
43 1  -32.012   29.302   20.132
44 1  -30.723   29.295   13.772
45 1  -31.208   33.194   15.274
46 1  -30.127   32.929   19.351
47 1  -29.432   35.638   13.735
48 1  -29.233   37.938   16.559
49 1  -26.948   34.774   18.848
50 1  -27.961   40.791   16.601
51 1  -26.888   40.837   20.577
52 1  -24.563   37.016   21.687
53 1  -25.234  -41.667   22.015
54 1  -23.476   42.079   24.845
55 1  -21.273   38.801   22.417
56 1  -21.210  -41.838   27.228
57 1  -18.987   40.443   28.265
58 1  -17.448   38.723   24.264
59 1  -16.844   40.927   30.722
60 1  -14.703   37.639   29.840
61 1  -13.686   38.333   24.860
62 1  -11.491   37.304   31.631
63 1   -9.392   35.641   28.484
64 1  -10.069   38.710   24.310
ITEM: TIMESTEP
6
ITEM: NUMBER OF ATOMS
64
ITEM: BOX BOUNDS pp pp pp
-42.51110076904297 43.002899169921875
-42.53459930419922 42.979400634765625
-1.1464499235153198 84.3675537109375
ITEM: ATOMS id type xu yu zu
1 1   19.653  -13.439   12.392
2 1   22.234  -14.589    9.436
3 1   19.670  -16.173   15.189
4 1   19.459  -19.476   12.589
5 1   22.782  -18.409   10.791
6 1   18.954  -23.082   14.310
7 1   19.829  -24.795   11.177
8 1   23.738  -22.373   11.120
9 1   19.496  -28.450   11.034
10 1   22.945  -28.445    8.653
11 1   26.278  -25.784   10.607
12 1   24.238  -31.529    7.591
13 1   28.131  -30.035    7.400
14 1   28.244  -28.818   11.072
15 1   31.048  -32.058    5.848
16 1   34.161  -30.399    7.763
17 1   32.187  -30.013   12.427
18 1   37.234  -31.671    7.832
19 1   38.203  -30.225   11.664
20 1   34.784  -32.108   13.735
21 1   41.680  -30.472   13.327
22 1   40.682  -29.622   16.862
23 1   36.997  -32.396   17.637
24 1  -42.511  -29.279   19.305
25 1   40.568  -29.698   21.990
26 1   39.430  -33.297   20.289
27 1   41.306  -30.175   25.157
28 1   38.043  -32.231   26.100
29 1   38.983  -35.499   23.814
30 1   37.263  -32.768   29.101
31 1   34.842  -35.791   28.974
32 1   37.965  -37.717   26.894
33 1   38.977   39.909   20.721
34 1   39.366  -41.394   22.958
35 1   35.597   39.366   18.929
36 1   33.697   41.818   20.965
37 1   36.415  -39.741   21.583
38 1   30.004  -42.535   20.121
39 1   30.438  -38.845   22.331
40 1   34.713  -36.656   20.598
41 1   27.669  -36.801   22.612
42 1   29.969  -33.758   23.062
43 1   31.864  -34.316   19.862
44 1   28.620  -30.308   23.755
45 1   31.720  -28.571   22.807
46 1   32.089  -30.257   18.466
47 1   31.660  -24.838   22.989
48 1   34.151  -24.362   19.676
49 1   31.747  -26.811   17.411
50 1   34.884  -21.391   18.540
51 1   35.737  -22.553   14.569
52 1   31.622  -24.444   13.711
53 1   36.330  -20.065   12.490
54 1   34.594  -21.571    9.456
55 1   30.738  -21.762   11.254
56 1   34.752  -19.704    6.012
57 1   31.472  -21.522    4.606
58 1   28.380  -20.498    7.665
59 1   30.573  -21.081    1.463
60 1   26.912  -21.307    1.814
61 1   25.204  -19.016    5.816
62 1   24.920  -21.107   -1.146
63 1   21.672  -20.472    0.948
64 1   22.387  -17.011    4.457
ITEM: TIMESTEP
7
ITEM: NUMBER OF ATOMS
64
ITEM: BOX BOUNDS pp pp pp
-42.121002197265625 43.39299774169922
-42.77750015258789 42.73649978637695
-37.981300354003906 47.53269958496094
ITEM: ATOMS id type xu yu zu
1 1  -42.121  -41.406  -33.894
2 1   39.866  -40.388  -33.426
3 1  -41.190   41.221  -31.545
4 1   41.267   42.582  -28.627
5 1   37.939  -42.778  -31.015
6 1   40.538   40.791  -25.275
7 1   37.250   42.349  -24.436
8 1   35.468   41.198  -28.279
9 1   35.230   41.302  -21.699
10 1   31.692   42.562  -22.888
11 1   31.667   39.964  -26.946
12 1   28.823   41.777  -20.485
13 1   26.449   42.142  -23.534
14 1   28.475   38.953  -25.581
15 1   23.010   41.535  -22.671
16 1   22.260   40.241  -26.343
17 1   24.946   36.798  -26.661
18 1   18.759   39.443  -27.788
19 1   20.041   37.300  -30.591
20 1   21.986   34.947  -27.692
21 1   17.810   35.632  -32.314
22 1   20.212   32.767  -33.121
23 1   20.753   31.036  -28.714
24 1   19.787   29.937  -35.553
25 1   22.209   27.480  -33.364
26 1   19.583   28.030  -30.577
27 1   22.859   23.921  -34.638
28 1   23.150   22.047  -31.169
29 1   20.017   23.649  -29.759
30 1   23.424   18.236  -30.879
31 1   19.046   17.421  -31.370
32 1   17.714   20.507  -29.206
33 1   10.415   23.779  -22.780
34 1   14.301   22.642  -25.259
35 1   12.002   26.018  -20.243
36 1   15.497   24.277  -20.418
37 1   17.340   24.613  -25.068
38 1   18.631   25.194  -17.938
39 1   21.481   24.746  -20.217
40 1   20.197   27.021  -24.509
41 1   24.748   25.519  -19.076
42 1   25.978   25.234  -22.860
43 1   23.479   28.781  -23.992
44 1   29.272   25.638  -23.903
45 1   28.186   27.030  -27.476
46 1   25.999   30.444  -26.881
47 1   30.798   27.169  -30.285
48 1   28.718   30.262  -32.567
49 1   28.455   32.616  -28.851
50 1   30.245   31.882  -35.447
51 1   27.899   34.926  -35.297
52 1   28.855   36.439  -30.726
53 1   28.263   37.613  -37.981
54 1   27.308   39.926  -35.189
55 1   30.744   38.912  -32.855
56 1   26.847  -42.167  -36.193
57 1   27.068  -40.648  -32.667
58 1   31.399  -42.169  -31.428
59 1   26.689  -36.836  -32.187
60 1   29.334  -36.656  -29.764
61 1   33.715  -39.090  -31.247
62 1   30.440  -33.247  -28.246
63 1   34.388  -33.710  -27.828
64 1   36.452  -36.544  -31.188
ITEM: TIMESTEP
8
ITEM: NUMBER OF ATOMS
64
ITEM: BOX BOUNDS pp pp pp
-41.339599609375 44.174400329589844
-41.46150207519531 44.05249786376953
18.872400283813477 104.38639831542969
ITEM: ATOMS id type xu yu zu
1 1  -38.289  -41.462   26.977
2 1  -37.600  -39.279   30.909
3 1  -36.759  -40.218   24.560
4 1  -37.698  -36.028   25.179
5 1  -36.235  -35.800   29.431
6 1  -36.783  -33.354   22.933
7 1  -37.271  -30.966   25.736
8 1  -34.489  -32.735   28.320
9 1  -36.771  -27.546   24.956
10 1  -36.366  -26.658   28.774
11 1  -32.765  -29.011   30.054
12 1  -36.105  -23.603   29.603
13 1  -33.811  -23.680   32.576
14 1  -30.893  -25.642   29.824
15 1  -32.569  -20.643   34.430
16 1  -28.929  -21.875   35.397
17 1  -27.027  -23.746   31.492
18 1  -26.542  -19.474   36.988
19 1  -23.203  -21.027   35.440
20 1  -24.445  -21.148   31.534
21 1  -19.896  -19.583   36.512
22 1  -18.066  -21.355   33.203
23 1  -20.644  -20.562   29.678
24 1  -15.073  -21.036   32.752
25 1  -15.422  -21.130   28.788
26 1  -17.827  -18.271   28.603
27 1  -12.694  -20.773   26.980
28 1  -11.624  -17.146   28.615
29 1  -14.952  -15.462   27.643
30 1   -8.508  -14.835   27.941
31 1   -8.430  -15.241   24.153
32 1   -6.634  -11.666   23.326
33 1  -19.057   -7.156   24.038
34 1  -17.579  -11.280   25.049
35 1  -22.288   -7.646   22.767
36 1  -21.782  -11.163   21.748
37 1  -20.036  -13.750   25.920
38 1  -24.248  -12.650   20.342
39 1  -22.561  -16.414   20.228
40 1  -21.156  -16.723   24.063
41 1  -23.851  -19.362   18.872
42 1  -21.124  -21.672   20.729
43 1  -22.832  -20.682   23.976
44 1  -21.297  -25.592   20.157
45 1  -20.006  -26.469   23.216
46 1  -23.228  -24.232   26.486
47 1  -19.761  -30.273   24.355
48 1  -20.271  -29.947   28.104
49 1  -24.087  -27.487   27.897
50 1  -20.253  -32.451   30.453
51 1  -22.677  -31.092   33.226
52 1  -26.074  -29.505   31.023
53 1  -23.506  -32.961   35.671
54 1  -26.723  -31.008   36.707
55 1  -28.568  -31.294   33.128
56 1  -28.373  -32.083   39.861
57 1  -31.718  -30.687   38.403
58 1  -32.494  -32.844   33.918
59 1  -34.638  -30.648   40.192
60 1  -36.770  -29.773   37.472
61 1  -36.309  -33.292   34.226
62 1  -40.266  -29.081   38.145
63 1  -41.340  -30.796   35.022
64 1  -39.504  -35.337   34.299
ITEM: TIMESTEP
9
ITEM: NUMBER OF ATOMS
64
ITEM: BOX BOUNDS pp pp pp
13.874399185180664 99.38839721679688
-40.64010238647461 44.873897552490234
-5.871589660644531 79.64241027832031
ITEM: ATOMS id type xu yu zu
1 1   15.297  -20.032   -4.778
2 1   18.463  -22.049   -5.236
3 1   14.029  -20.021   -1.934
4 1   14.900  -23.663   -1.278
5 1   19.112  -23.160   -1.574
6 1   13.874  -25.518    1.591
7 1   16.665  -28.717    1.140
8 1   20.117  -25.739    0.963
9 1   16.768  -31.271    3.413
10 1   20.581  -32.441    2.414
11 1   22.617  -28.438    3.043
12 1   22.279  -34.852    4.428
13 1   25.944  -32.877    3.970
14 1   24.645  -29.990    5.819
15 1   28.649  -34.361    5.417
16 1   30.737  -31.500    5.406
17 1   28.138  -29.170    8.082
18 1   33.826  -31.511    6.494
19 1   33.871  -28.026    8.276
20 1   30.819  -29.665   10.707
21 1   36.811  -27.231    9.763
22 1   34.949  -25.175   12.638
23 1   31.617  -28.244   14.687
24 1   36.614  -23.527   15.331
25 1   33.026  -23.120   17.546
26 1   32.641  -27.691   18.143
27 1   32.835  -21.200   20.736
28 1   29.858  -23.332   22.310
29 1   31.396  -27.078   21.954
30 1   28.253  -23.102   25.031
31 1   26.821  -26.377   24.625
32 1   30.162  -28.878   25.273
33 1   33.085  -39.254   24.547
34 1   32.271  -34.121   24.268
35 1   29.819  -40.640   23.118
36 1   27.890  -37.096   23.014
37 1   30.706  -33.904   20.900
38 1   24.856  -37.021   21.559
39 1   24.414  -33.038   21.535
40 1   28.056  -31.495   19.774
41 1   21.494  -31.854   19.350
42 1   22.965  -28.122   19.258
43 1   26.256  -29.737   16.567
44 1   21.398  -25.328   18.058
45 1   24.714  -23.598   16.374
46 1   26.922  -26.685   13.862
47 1   23.920  -20.308   14.595
48 1   26.868  -20.722   12.242
49 1   25.679  -24.384   10.898
50 1   27.304  -18.360    9.252
51 1   28.879  -20.714    6.893
52 1   25.617  -24.275    6.351
53 1   30.483  -19.743    3.674
54 1   31.111  -23.562    2.454
55 1   26.458  -24.205    2.910
56 1   32.760  -24.595   -0.928
57 1   30.296  -27.911   -1.435
58 1   25.950  -25.681   -0.970
59 1   30.128  -30.133   -3.966
60 1   26.155  -30.836   -3.731
61 1   23.145  -26.455   -3.490
62 1   24.422  -33.345   -5.785
63 1   20.602  -31.917   -5.487
64 1   20.473  -27.039   -5.872
ITEM: TIMESTEP
10
ITEM: NUMBER OF ATOMS
64
ITEM: BOX BOUNDS pp pp pp
15.768599510192871 101.28260040283203
14.178899765014648 99.69290161132812
4.9203200340271 90.43431854248047
ITEM: ATOMS id type xu yu zu
1 1   34.526   15.561   34.173
2 1   33.799   19.441   35.032
3 1   33.192   14.179   30.831
4 1   29.862   16.505   31.259
5 1   31.685   20.434   31.910
6 1   27.354   16.051   28.604
7 1   25.503   19.087   29.423
8 1   29.352   21.586   29.095
9 1   22.448   20.350   27.513
10 1   23.186   23.820   28.179
11 1   27.620   24.969   27.305
12 1   21.072   26.051   26.686
13 1   23.201   29.239   27.386
14 1   26.504   27.363   24.816
15 1   22.129   32.376   26.372
16 1   25.932   33.704   25.891
17 1   27.231   30.925   22.510
18 1   26.424   37.182   25.023
19 1   29.451   36.819   22.769
20 1   27.630   33.924   20.080
21 1   30.795   39.867   20.677
22 1   32.479   37.618   17.712
23 1   28.995   35.158   16.354
24 1   33.587   39.178   14.597
25 1   32.833   35.763   12.447
26 1   28.785   36.318   12.654
27 1   33.908   35.281    9.584
28 1   31.016   32.046    8.665
29 1   28.172   34.757    8.799
30 1   31.175   30.509    5.244
31 1   27.676   29.906    4.920
32 1   26.629   34.236    5.273
33 1   17.470   38.285    7.911
34 1   21.866   36.984    7.013
35 1   15.769   36.043    9.460
36 1   18.220   32.666    9.048
37 1   22.554   34.443    9.492
38 1   17.895   30.031   11.043
39 1   21.914   28.636   10.351
40 1   24.306   32.175   11.659
41 1   22.950   25.806   12.159
42 1   26.830   26.910   11.604
43 1   26.301   30.345   14.238
44 1   29.353   24.447   12.871
45 1   31.881   26.696   14.204
46 1   29.339   29.193   16.861
47 1   35.110   25.597   15.740
48 1   35.216   28.889   18.410
49 1   31.546   28.313   19.673
50 1   37.937   29.207   20.781
51 1   35.768   31.295   23.642
52 1   32.037   28.696   23.848
53 1   36.893   32.268   26.484
54 1   33.958   32.533   28.357
55 1   32.763   28.418   27.542
56 1   33.868   33.621   31.857
57 1   30.454   31.551   32.470
58 1   31.152   27.098   31.183
59 1   28.870   32.033   35.590
60 1   27.030   28.835   35.651
61 1   30.215   25.021   34.256
62 1   24.920   27.743   38.440
63 1   24.925   23.827   38.021
64 1   29.339   22.326   36.674
ITEM: TIMESTEP
11
ITEM: NUMBER OF ATOMS
64
ITEM: BOX BOUNDS pp pp pp
5.877050399780273 91.39105224609375
-42.36050033569336 43.153499603271484
-42.96050262451172 42.553497314453125
ITEM: ATOMS id type xu yu zu
1 1   31.091  -22.463   40.846
2 1   29.502  -23.394   37.109
3 1   28.514  -21.714  -41.895
4 1   25.650  -24.421   42.348
5 1   25.288  -22.716   39.253
6 1   22.402  -24.860  -41.561
7 1   20.708  -22.197   41.360
8 1   22.169  -24.440   38.283
9 1   17.268  -22.192   41.208
10 1   17.574  -26.386   41.438
11 1   20.296  -28.066   37.541
12 1   14.254  -28.355   41.545
13 1   13.787  -29.003   37.935
14 1   17.796  -30.526   37.867
15 1   11.119  -30.969   36.629
16 1   13.012  -31.575   33.242
17 1   16.522  -33.711   34.937
18 1   11.346  -33.581   30.454
19 1   14.591  -34.823   29.010
20 1   15.372  -36.469   32.614
21 1   14.567  -37.083   26.060
22 1   17.905  -39.644   27.315
23 1   16.240  -40.616   31.940
24 1   18.258   42.605   25.570
25 1   20.275   40.638   28.439
26 1   16.621   41.199   31.189
27 1   20.667   36.932   27.790
28 1   19.483   35.395   31.463
29 1   15.716   37.213   31.985
30 1   20.048   31.691   32.414
31 1   16.731   31.922   35.138
32 1   14.075   33.736   33.027
33 1    5.877   38.660   36.319
34 1    9.846   36.961   34.390
35 1    6.474   40.646   38.865
36 1    9.880   39.226   39.964
37 1   12.243   39.116   35.912
38 1   11.355   40.897  -42.961
39 1   15.032   39.723   41.532
40 1   14.977   41.341   37.172
41 1   17.909   41.328  -42.137
42 1   20.339   41.543   39.764
43 1   17.390  -41.675   37.536
44 1   23.591  -42.361   39.914
45 1   23.836  -41.170   36.153
46 1   19.731  -38.554   35.963
47 1   26.793  -39.270   35.036
48 1   24.387  -37.636   32.446
49 1   21.980  -35.909   35.443
50 1   25.839  -35.576   30.078
51 1   22.636  -34.407   29.327
52 1   21.021  -32.334   33.344
53 1   22.593  -32.164   26.983
54 1   19.393  -30.216   28.339
55 1   21.588  -28.782   31.819
56 1   17.956  -27.825   26.536
57 1   16.309  -26.604   29.626
58 1   19.896  -25.083   32.440
59 1   13.968  -24.091   29.137
60 1   13.952  -22.298   32.679
61 1   14.369  -17.251   31.987
62 1   11.205  -22.939   35.051
63 1   11.730  -19.723   37.444
64 1   15.307  -17.201   35.477
ITEM: TIMESTEP
12
ITEM: NUMBER OF ATOMS
64
ITEM: BOX BOUNDS pp pp pp
-42.84510040283203 42.66889953613281
-19.13719940185547 66.37680053710938
-2.51951003074646 82.99449157714844
ITEM: ATOMS id type xu yu zu
1 1   42.904   13.833    6.580
2 1  -42.712   11.433    9.449
3 1   39.779   13.512    4.652
4 1   37.714   12.155    7.655
5 1   40.223    8.770    8.746
6 1   34.036   11.205    7.273
7 1   33.931    8.339   10.330
8 1   37.234    6.479    9.003
9 1   30.821    6.382   11.203
10 1   31.309    4.154    8.509
11 1   35.462    2.521    9.610
12 1   28.593    1.627    7.910
13 1   30.800   -0.429    5.943
14 1   33.751   -0.918    9.261
15 1   29.363   -3.116    4.618
16 1   32.762   -5.275    4.582
17 1   33.840   -5.029    8.918
18 1   32.966   -8.668    3.390
19 1   35.898   -9.841    6.078
20 1   33.390   -8.649    9.756
21 1   37.307  -13.281    6.153
22 1   38.665  -13.273   10.236
23 1   34.735  -11.659   12.508
24 1   40.382  -16.345   12.022
25 1   39.284  -15.092   15.844
26 1   34.839  -14.795   14.705
27 1   39.768  -17.495   18.818
28 1   36.766  -16.103   21.247
29 1   33.548  -16.396   18.417
30 1   36.280  -17.668   24.841
31 1   32.366  -16.890   25.467
32 1   31.510  -17.375   21.504
33 1   23.272  -19.137   15.966
34 1   27.483  -18.388   17.722
35 1   21.221  -15.891   16.356
36 1   24.025  -13.906   18.557
37 1   28.468  -14.869   17.319
38 1   23.892  -10.312   19.389
39 1   27.716  -10.039   20.562
40 1   30.258  -11.564   17.130
41 1   28.747   -6.813   21.977
42 1   32.446   -6.667   20.699
43 1   31.623   -8.360   16.357
44 1   35.021   -4.217   21.056
45 1   37.752   -6.250   18.851
46 1   35.270   -6.645   15.013
47 1   40.760   -5.172   18.593
48 1   41.294   -6.326   15.293
49 1   37.775   -4.132   13.581
50 1  -41.142   -6.075   13.597
51 1  -42.845   -5.602    9.790
52 1   39.418   -2.566   10.173
53 1  -40.805   -4.504    6.955
54 1   41.320   -3.313    4.868
55 1   40.438   -0.073    7.901
56 1   40.841   -2.601    1.404
57 1   37.554   -0.699    2.117
58 1   38.614    2.491    4.529
59 1   35.724    0.087   -0.157
60 1   34.634    3.416    1.636
61 1   38.534    6.299    2.553
62 1   32.241    5.270    0.443
63 1   34.564    6.568   -2.520
64 1   38.559    7.532   -0.873
ITEM: TIMESTEP
13
ITEM: NUMBER OF ATOMS
64
ITEM: BOX BOUNDS pp pp pp
16.667400360107422 102.181396484375
-35.956600189208984 49.55739974975586
18.844799041748047 104.35879516601562
ITEM: ATOMS id type xu yu zu
1 1   38.613  -15.107   40.847
2 1   35.716  -18.289   41.054
3 1   37.898  -11.574   42.510
4 1   35.643  -10.382   39.058
5 1   38.069  -11.761   35.972
6 1   32.147  -11.170   38.708
7 1   32.423  -10.472   34.907
8 1   35.101  -13.270   34.414
9 1   29.529  -10.331   32.526
10 1   31.482  -11.189   29.601
11 1   33.142  -15.222   31.052
12 1   29.672  -10.884   26.350
13 1   31.438  -13.927   24.406
14 1   31.386  -16.446   28.029
15 1   30.031  -15.489   20.902
16 1   32.168  -19.006   21.908
17 1   30.110  -19.981   26.220