ITEM: TIMESTEP
0
ITEM: NUMBER OF ATOMS
63
ITEM: BOX BOUNDS pp pp pp
-33.62689971923828 51.88710021972656
-26.13290023803711 59.381099700927734
-42.81999969482422 42.694000244140625
ITEM: ATOMS id type xu yu zu
1 1    3.459   36.597  -20.755
2 1    3.556   33.833  -18.049
3 1    1.895   39.596  -18.878
4 1   -1.633   37.593  -18.532
5 1   -4.201   39.021  -17.171
6 1   -5.261   35.579  -15.281
7 1   -5.094   38.042  -11.567
8 1   -8.031   34.355  -15.579
9 1   -7.807   32.395  -11.973
10 1  -11.378   29.218  -11.744
11 1   -4.540   30.906  -11.490
12 1   -4.808   28.563  -14.848
13 1   -8.819   27.137  -13.368
14 1   -2.487   26.350  -15.364
15 1   -2.335   25.364  -11.168
16 1   -6.581   23.712  -11.183
17 1    0.073   22.920   -9.954
18 1   -2.054   22.272   -6.659
19 1   -4.619   20.706   -9.267
20 1   -0.849   20.553   -4.194
21 1   -4.011   18.346   -2.999
22 1   -6.431   17.666   -6.606
23 1   -6.271   19.828   -0.207
24 1   -8.441   16.413   -0.147
25 1   -8.277   15.327   -4.513
26 1  -11.420   17.080    1.613
27 1  -12.670   13.661    1.377
28 1   -9.840   11.596    3.670
29 1  -16.090   13.040    2.805
30 1  -14.785    8.996    3.507
31 1  -11.051    8.805    0.987
32 1  -24.649    7.399   25.072
33 1  -26.945    3.671   24.750
34 1  -25.836    8.926   28.265
35 1  -28.399    6.453   28.944
36 1  -26.652    2.236   28.259
37 1  -30.188    6.473   32.304
38 1  -31.821    2.746   31.741
39 1  -28.446   -0.218   30.323
40 1  -33.627    1.477   34.917
41 1  -31.403    3.269   37.719
42 1  -27.631    2.026   36.084
43 1  -31.936    2.639   41.349
44 1  -29.432    0.169   41.305
45 1  -25.410    2.517   39.690
46 1  -28.817   -2.010  -41.086
47 1  -24.769   -1.880  -41.418
48 1  -25.090   -5.730  -42.820
49 1  -22.553   -1.600  -38.329
50 1  -24.344   -4.446  -36.330
51 1  -25.237   -7.689  -39.176
52 1  -23.910   -5.355  -32.775
53 1  -22.478   -8.419  -33.318
54 1  -25.340   -9.271  -35.778
55 1  -22.273  -10.993  -30.279
56 1  -25.874  -13.023  -30.855
57 1  -26.566  -13.426  -35.442
58 1  -27.317  -15.574  -28.689
59 1  -27.743  -18.454  -31.727
60 1  -30.236  -16.436  -35.338
61 1  -28.724  -21.456  -31.423
62 1  -27.641  -22.553  -34.575
63 1  -31.110  -26.133  -35.718
ITEM: TIMESTEP
1
ITEM: NUMBER OF ATOMS
63
ITEM: BOX BOUNDS pp pp pp
-8.27025032043457 77.2437515258789
-33.62969970703125 51.884300231933594
-42.588802337646484 42.92519760131836
ITEM: ATOMS id type xu yu zu
1 1   12.300  -31.548   37.563
2 1   15.611  -33.325   36.341
3 1    9.633  -33.630   39.265
4 1    6.737  -31.327   37.538
5 1    3.386  -31.765   38.478
6 1    2.496  -28.271   38.839
7 1    6.554  -26.205   38.755
8 1   -0.444  -26.742   40.370
9 1    1.481  -25.627  -41.997
10 1    5.483  -23.423   41.781
11 1    0.217  -23.789  -39.273
12 1    3.129  -21.558  -38.438
13 1    3.929  -20.430  -42.589
14 1    3.134  -19.250  -35.867
15 1    6.045  -16.953  -37.627
16 1    4.576  -16.253  -41.971
17 1    6.977  -14.349  -36.221
18 1    8.957  -12.904  -39.357
19 1    5.635  -12.716  -41.314
20 1   10.538   -9.570  -39.280
21 1    9.840   -8.563   42.484
22 1    5.575   -9.177   42.077
23 1   11.096   -5.416   40.898
24 1    8.667   -5.783   38.366
25 1    5.080   -5.637   40.966
26 1    8.819   -3.580   35.901
27 1    5.456   -4.521   34.583
28 1    3.465   -3.091   37.961
29 1    4.416   -2.948   31.538
30 1    0.395   -3.162   32.132
31 1   -0.766    0.665   30.673
32 1   -5.561    0.588  -41.445
33 1   -1.464   -1.804  -41.037
34 1   -8.270   -1.313  -42.151
35 1   -5.963   -4.948   42.666
36 1   -1.114   -3.456   41.299
37 1   -7.240   -7.279   40.658
38 1   -4.675   -7.466   38.001
39 1   -0.743   -6.689   40.104
40 1   -4.812   -9.937   35.950
41 1   -1.380   -9.762   34.780
42 1    0.266  -10.212   39.106
43 1   -0.088  -12.172   32.462
44 1    3.893  -12.392   33.474
45 1    3.678  -13.416   38.434
46 1    5.879  -14.373   31.784
47 1    8.588  -14.342   34.949
48 1    5.715  -16.365   37.449
49 1   11.407  -16.053   34.475
50 1   12.021  -16.473   38.594
51 1    8.664  -19.007   39.655
52 1   15.163  -17.550   39.986
53 1   13.751  -18.691  -41.831
54 1   10.969  -21.367   41.044
55 1   15.701  -20.861  -39.045
56 1   12.342  -23.642  -38.118
57 1   10.593  -24.814  -42.377
58 1   12.901  -26.097  -35.784
59 1    9.827  -28.308  -36.727
60 1    9.888  -28.289  -41.369
61 1   10.030  -31.097  -35.486
62 1    7.776  -32.493  -38.270
63 1   10.277  -31.957  -41.814
ITEM: TIMESTEP
2
ITEM: NUMBER OF ATOMS
63
ITEM: BOX BOUNDS pp pp pp
-28.89630126953125 56.617698669433594
-41.63730239868164 43.8766975402832
-23.097898483276367 62.416099548339844
ITEM: ATOMS id type xu yu zu
1 1  -26.434  -32.243   -1.969
2 1  -26.826  -31.725    2.565
3 1  -28.896  -34.386   -3.380
4 1  -26.485  -35.372   -6.588
5 1  -25.787  -32.739   -9.182
6 1  -22.788  -35.197  -10.658
7 1  -21.685  -32.679  -13.671
8 1  -20.416  -37.141   -8.605
9 1  -18.210  -37.361  -11.881
10 1  -17.534  -32.802  -12.299
11 1  -14.816  -39.011  -12.064
12 1  -13.123  -36.413  -14.114
13 1  -13.914  -33.129  -11.291
14 1   -9.214  -36.709  -15.086
15 1   -8.783  -32.756  -15.592
16 1  -10.390  -30.704  -11.430
17 1   -5.535  -31.133  -16.341
18 1   -7.029  -27.576  -14.912
19 1   -7.262  -28.846  -11.138
20 1   -4.926  -24.661  -15.600
21 1   -6.101  -22.764  -12.562
22 1   -5.577  -25.322   -9.294
23 1   -5.339  -19.277  -11.978
24 1   -5.926  -18.899   -8.459
25 1   -3.738  -22.464   -7.765
26 1   -4.845  -15.898   -6.411
27 1   -4.130  -18.049   -2.631
28 1   -2.156  -21.375   -4.219
29 1   -2.792  -16.420   -0.280
30 1   -2.807  -19.551    2.371
31 1   -3.113  -22.801   -0.587
32 1    5.946  -27.704   -3.690
33 1    2.950  -24.029   -4.275
34 1    4.760  -29.589   -0.733
35 1    1.538  -30.254   -2.170
36 1    0.249  -26.265   -3.691
37 1   -1.222  -32.219   -0.281
38 1   -3.696  -29.556   -0.153
39 1   -3.365  -27.079   -4.204
40 1   -6.763  -29.763    1.320
41 1   -8.297  -26.371   -0.520
42 1   -6.937  -27.799   -4.049
43 1  -12.076  -25.474    0.096
44 1  -12.187  -23.984   -3.078
45 1  -10.300  -26.799   -6.282
46 1  -14.785  -21.641   -4.647
47 1  -13.146  -21.845   -8.537
48 1  -13.044  -26.296   -8.661
49 1  -14.956  -20.794  -11.016
50 1  -13.233  -23.300  -13.470
51 1  -15.216  -27.394  -12.207
52 1  -13.021  -23.132  -17.383
53 1  -13.185  -27.221  -18.358
54 1  -16.290  -28.185  -15.680
55 1  -13.689  -27.951  -21.528
56 1  -13.956  -31.744  -20.681
57 1  -17.720  -31.778  -18.046
58 1  -14.005  -33.775  -23.098
59 1  -14.948  -36.680  -20.676
60 1  -18.861  -35.728  -19.124
61 1  -15.437  -39.933  -22.337
62 1  -17.856  -41.637  -20.146
63 1  -21.427  -38.479  -18.408
ITEM: TIMESTEP
3
ITEM: NUMBER OF ATOMS
63
ITEM: BOX BOUNDS pp pp pp
-3.989689826965332 81.52430725097656
-42.57339859008789 42.94060134887695
-42.701995849609375 42.81200408935547
ITEM: ATOMS id type xu yu zu
1 1   -2.475   35.059  -30.435
2 1   -2.266   30.762  -31.616
3 1   -3.990   37.701  -33.306
4 1   -0.415   39.714  -33.011
5 1    0.782  -42.288  -34.415
6 1    0.852  -39.951  -30.780
7 1    4.984  -39.923  -30.859
8 1   -0.789  -37.327  -30.724
9 1    1.392  -35.332  -28.633
10 1    5.314  -35.925  -30.169
11 1    0.784  -32.121  -27.566
12 1    4.163  -31.484  -27.323
13 1    4.705  -32.509  -31.385
14 1    5.223  -27.895  -26.099
15 1    8.866  -27.871  -27.748
16 1    8.054  -29.374  -32.159
17 1   10.903  -25.251  -28.002
18 1   12.479  -27.086  -31.051
19 1    9.447  -26.329  -33.649
20 1   15.924  -26.093  -31.751
21 1   15.935  -27.253  -35.461
22 1   11.810  -25.644  -37.449
23 1   18.550  -26.157  -37.101
24 1   17.369  -25.826  -40.247
25 1   14.002  -23.156  -39.002
26 1   19.364  -24.964  -42.647
27 1   16.062  -23.823   40.242
28 1   14.024  -21.299  -42.702
29 1   16.584  -22.637   36.856
30 1   13.207  -21.056   36.701
31 1   13.848  -18.515   40.239
32 1    8.565  -13.151  -37.957
33 1   11.746  -16.032  -40.735
34 1    5.601  -12.913  -39.124
35 1    5.393  -16.049  -41.597
36 1    9.315  -18.806  -40.921
37 1    2.741  -18.150  -41.587
38 1    4.316  -21.180   42.225
39 1    7.907  -22.111  -40.020
40 1    2.308  -24.190   41.290
41 1    5.731  -26.790   40.956
42 1    6.739  -25.581  -40.655
43 1    5.559  -30.174   40.193
44 1    8.870  -30.942   42.426
45 1    7.923  -29.127  -38.774
46 1   10.421  -34.731   42.291
47 1   12.493  -33.841  -40.065
48 1    9.114  -32.506  -37.457
49 1   14.869  -36.332  -38.558
50 1   14.502  -34.435  -34.554
51 1    9.801  -34.612  -33.819
52 1   16.672  -35.693  -31.807
53 1   14.618  -35.078  -29.040
54 1   11.191  -36.579  -30.837
55 1   15.962  -36.095  -25.625
56 1   12.268  -36.767  -24.041
57 1    9.696  -38.760  -27.509
58 1   11.889  -38.084  -21.119
59 1    8.868  -40.114  -22.217
60 1   10.324  -42.369  -26.064
61 1    6.950  -42.573  -19.847
62 1    9.662   40.567  -19.645
63 1   12.262   40.625  -24.223
ITEM: TIMESTEP
4
ITEM: NUMBER OF ATOMS
63
ITEM: BOX BOUNDS pp pp pp
-42.64419937133789 42.86980056762695
7.803969860076904 93.3179702758789
-19.05259895324707 66.4614028930664
ITEM: ATOMS id type xu yu zu
1 1   40.400   32.509   -3.080
2 1  -41.515   31.986   -0.513
3 1   38.498   29.788   -3.882
4 1   38.132   30.762   -7.770
5 1   37.111   28.235  -10.354
6 1   39.584   29.934  -13.182
7 1   42.582   30.468  -10.384
8 1   40.491   27.428  -16.259
9 1  -41.012   28.775  -16.846
10 1  -39.407   29.130  -12.611
11 1  -39.166   27.532  -19.053
12 1  -35.397   28.570  -17.101
13 1  -36.429   26.787  -13.459
14 1  -32.212   27.913  -18.256
15 1  -30.204   28.181  -15.027
16 1  -32.610   25.216  -12.292
17 1  -26.804   27.939  -14.835
18 1  -26.808   26.865  -10.916
19 1  -29.476   23.302  -11.525
20 1  -23.856   25.895   -9.709
21 1  -25.108   23.594   -6.719
22 1  -27.418   19.923   -9.047
23 1  -22.521   22.140   -4.134
24 1  -24.484   18.708   -3.144
25 1  -25.215   17.455   -7.312
26 1  -23.327   16.420   -0.916
27 1  -25.504   13.817   -2.520
28 1  -23.169   13.668   -6.224
29 1  -25.931   10.134   -1.415
30 1  -26.823    9.003   -5.063
31 1  -23.468    9.596   -6.540
32 1  -23.815    9.110  -15.771
33 1  -22.927   11.790  -11.614
34 1  -27.048    8.573  -16.051
35 1  -27.409    8.950  -12.212
36 1  -26.390   13.132  -11.017
37 1  -29.873    7.804  -10.701
38 1  -32.215   11.157  -11.732
39 1  -29.468   14.864  -10.431
40 1  -35.940   11.680  -10.451
41 1  -34.920   14.509   -7.448
42 1  -32.555   16.804  -10.088
43 1  -37.294   16.341   -5.881
44 1  -35.108   18.854   -4.544
45 1  -33.403   20.444   -8.265
46 1  -36.514   21.500   -2.046
47 1  -33.953   23.735   -2.943
48 1  -34.883   23.781   -6.925
49 1  -33.931   26.847   -1.283
50 1  -32.545   28.673   -4.508
51 1  -35.318   28.034   -7.797
52 1  -31.511   32.211   -4.134
53 1  -32.442   33.483   -8.106
54 1  -35.840   31.634   -8.597
55 1  -32.065   36.800   -8.921
56 1  -34.490   37.066  -11.545
57 1  -38.220   34.633   -9.986
58 1  -35.338   40.308  -13.145
59 1  -37.039   38.648  -15.950
60 1  -39.712   35.259  -14.321
61 1  -38.575   40.705  -18.427
62 1  -42.644   40.092  -17.425
63 1   42.565   36.203  -15.340
ITEM: TIMESTEP
5
ITEM: NUMBER OF ATOMS
63
ITEM: BOX BOUNDS pp pp pp
-30.11750030517578 55.39649963378906
-42.81919860839844 42.694801330566406
-42.156402587890625 43.35759735107422
ITEM: ATOMS id type xu yu zu
1 1   37.434   11.852  -22.342
2 1   35.599   15.802  -22.033
3 1   36.427    9.728  -19.369
4 1   35.188   12.847  -17.113
5 1   36.857   13.987  -14.057
6 1   34.326   12.202  -11.901
7 1   32.445    8.949  -14.473
8 1   35.134   11.281   -8.878
9 1   33.886    7.780   -9.351
10 1   29.509    8.795  -11.574
11 1   33.840    5.455   -6.222
12 1   30.185    5.401   -5.678
13 1   29.356    5.024   -9.752
14 1   28.928    3.134   -3.400
15 1   25.222    3.534   -4.964
16 1   25.779    2.658   -9.304
17 1   22.140    2.035   -3.239
18 1   20.409    1.362   -6.563
19 1   23.713   -0.401   -8.230
20 1   17.285   -0.411   -6.196
21 1   17.437   -1.824   -9.871
22 1   21.475   -3.737   -9.457
23 1   15.017   -4.280  -10.725
24 1   18.063   -7.113  -12.164
25 1   20.011   -7.170   -8.616
26 1   17.036   -9.847  -13.532
27 1   20.630  -12.421  -12.656
28 1   19.122  -16.091  -11.505
29 1   23.554  -12.809  -14.822
30 1   23.014  -16.867  -15.014
31 1   19.047  -16.840  -15.511
32 1  -17.925  -25.255  -31.975
33 1  -18.650  -23.516  -36.306
34 1  -21.292  -26.201  -30.470
35 1  -23.055  -24.818  -33.773
36 1  -20.370  -26.574  -37.907
37 1  -26.606  -25.851  -34.314
38 1  -25.205  -29.086  -36.828
39 1  -22.888  -26.875  -40.518
40 1  -27.619  -31.735  -38.317
41 1  -26.881  -31.754  -41.878
42 1  -26.223  -27.295  -42.156
43 1  -23.960  -33.744   42.549
44 1  -24.980  -36.145  -40.738
45 1  -21.066  -37.593  -38.342
46 1  -27.331  -39.121  -41.836
47 1  -27.676  -40.624  -38.189
48 1  -23.674  -40.153  -37.329
49 1  -28.906   42.205  -37.392
50 1  -28.780   43.148  -33.447
51 1  -24.244  -40.957  -33.160
52 1  -30.118   41.216  -30.346
53 1  -26.200   40.758  -28.443
54 1  -25.556  -40.667  -29.745
55 1  -26.311   40.439  -25.321
56 1  -23.224   42.218  -24.390
57 1  -22.494  -40.011  -27.076
58 1  -22.428  -42.819  -21.002
59 1  -21.223  -39.206  -21.841
60 1  -24.273  -37.044  -25.322
61 1  -20.379  -36.348  -19.256
62 1  -22.381  -33.305  -21.416
63 1  -21.798  -34.482  -26.567
ITEM: TIMESTEP
6
ITEM: NUMBER OF ATOMS
63
ITEM: BOX BOUNDS pp pp pp
-42.36249923706055 43.1515007019043
-27.595500946044922 57.91849899291992
-7.260749816894531 78.25325012207031
ITEM: ATOMS id type xu yu zu
1 1  -30.385   -2.999   10.688
2 1  -32.570   -2.786   14.201
3 1  -32.528   -2.883    7.468
4 1  -32.236   -6.367    6.405
5 1  -33.601   -7.466    3.214
6 1  -34.006  -11.221    4.336
7 1  -32.615  -12.937    0.885
8 1  -33.107  -12.545    7.708
9 1  -32.824  -16.085    6.909
10 1  -30.765  -15.945    3.118
11 1  -31.542  -18.506    9.359
12 1  -30.400  -21.332    6.539
13 1  -28.132  -18.272    4.258
14 1  -28.885  -23.837    7.687
15 1  -27.426  -24.523    4.395
16 1  -24.938  -21.036    3.473
17 1  -25.199  -27.360    3.793
18 1  -23.413  -25.558    0.610
19 1  -21.477  -22.666    3.432
20 1  -20.931  -27.596   -1.621
21 1  -19.222  -24.139   -2.897
22 1  -17.464  -21.916    1.289
23 1  -16.377  -23.973   -5.437
24 1  -14.953  -20.885   -4.220
25 1  -14.261  -22.718   -0.621
26 1  -11.623  -19.420   -5.659
27 1  -10.697  -17.598   -2.642
28 1  -10.370  -20.842   -0.330
29 1   -8.065  -15.650   -2.478
30 1   -7.966  -16.532    0.874
31 1   -6.677  -20.216    0.878
32 1   -6.723  -27.003    8.491
33 1   -6.943  -24.405    4.614
34 1   -8.732  -25.574   11.274
35 1   -9.074  -22.101    9.880
36 1  -10.042  -22.381    4.943
37 1  -11.004  -19.768   11.071
38 1  -11.342  -17.520    8.136
39 1  -13.180  -20.390    4.984
40 1  -12.914  -14.221    8.094
41 1  -13.869  -13.849    4.282
42 1  -15.656  -17.671    4.727
43 1  -15.828  -11.595    3.123
44 1  -16.759  -14.103    0.440
45 1  -19.333  -17.243    2.679
46 1  -18.702  -12.555   -2.522
47 1  -20.401  -16.373   -3.625
48 1  -22.089  -16.708    0.513
49 1  -22.637  -16.833   -6.532
50 1  -24.131  -20.029   -5.115
51 1  -25.857  -18.224   -1.118
52 1  -27.041  -21.521   -7.261
53 1  -29.095  -22.747   -4.012
54 1  -29.474  -18.524   -2.360
55 1  -32.057  -24.959   -4.461
56 1  -33.854  -23.361   -0.956
57 1  -33.569  -18.199   -1.334
58 1  -37.266  -24.573    0.240
59 1  -38.706  -21.260    2.163
60 1  -37.677  -17.724   -1.073
61 1  -42.362  -20.959    3.119
62 1   41.476  -19.444   -0.704
63 1  -40.616  -16.909   -2.865
ITEM: TIMESTEP
7
ITEM: NUMBER OF ATOMS
63
ITEM: BOX BOUNDS pp pp pp
-34.82780075073242 50.68619918823242
-3.24360990524292 82.27039337158203
-30.644800186157227 54.86920166015625
ITEM: ATOMS id type xu yu zu
1 1   -3.388   -3.244  -12.630
2 1   -0.251   -3.166  -10.512
3 1   -4.660   -0.276  -12.724
4 1   -5.263   -0.472   -9.250
5 1   -6.081    2.387   -7.442
6 1   -6.491    5.157  -10.547
7 1   -9.386    3.515  -12.325
8 1   -6.766    8.660   -9.986
9 1   -9.176    9.137  -13.630
10 1  -12.965    6.196  -13.971
11 1   -9.835   12.788  -14.735
12 1  -12.712   11.687  -17.819
13 1  -14.938    9.110  -14.988
14 1  -14.199   14.039  -19.788
15 1  -17.249   11.827  -20.615
16 1  -18.792   10.417  -16.155
17 1  -19.935   12.979  -22.749
18 1  -22.421   10.454  -21.501
19 1  -21.790   12.032  -17.614
20 1  -26.089   10.373  -22.493
21 1  -27.466    9.293  -19.381
22 1  -26.005   12.097  -16.443
23 1  -30.950    8.899  -19.164
24 1  -31.092    9.962  -15.286
25 1  -29.399   13.628  -16.129
26 1  -34.585    9.787  -13.890
27 1  -33.203   12.265  -11.084
28 1  -31.963   15.187  -13.243
29 1  -34.828   13.511   -8.409
30 1  -32.576   16.180   -7.621
31 1  -33.555   18.206  -11.064
32 1  -28.570   26.350  -15.955
33 1  -31.472   22.212  -14.347
34 1  -25.030   25.832  -15.183
35 1  -26.102   23.441  -12.059
36 1  -28.586   19.920  -13.872
37 1  -23.198   21.925   -9.895
38 1  -25.220   19.123   -8.611
39 1  -26.354   17.139  -12.656
40 1  -24.550   17.079   -5.940
41 1  -26.525   13.898   -7.448
42 1  -24.724   14.330  -10.853
43 1  -26.408   10.527   -5.515
44 1  -26.449    8.155   -9.259
45 1  -23.499   10.446  -12.271
46 1  -26.285    4.846   -9.183
47 1  -25.383    4.483  -12.675
48 1  -21.931    6.871  -12.766
49 1  -25.149    1.316  -13.685
50 1  -22.954    2.647  -16.931
51 1  -18.937    4.694  -15.406
52 1  -21.782    0.228  -19.511
53 1  -18.526    2.528  -20.609
54 1  -16.363    2.461  -16.970
55 1  -16.473    1.593  -23.482
56 1  -12.991    3.727  -22.366
57 1  -12.267    3.275  -17.709
58 1  -10.142    3.714  -24.079
59 1  -10.195    7.882  -24.734
60 1  -14.518    8.647  -27.137
61 1   -7.299    9.394  -26.954
62 1   -8.519    9.958  -30.645
63 1  -13.219    8.519  -30.562
ITEM: TIMESTEP
8
ITEM: NUMBER OF ATOMS
63
ITEM: BOX BOUNDS pp pp pp
-27.536298751831055 57.977699279785156
-7.2811198234558105 78.23287963867188
-43.19219970703125 42.321800231933594
ITEM: ATOMS id type xu yu zu
1 1  -20.120   22.947   38.771
2 1  -19.681   26.570   39.619
3 1  -23.308   22.320   39.078
4 1  -23.020   19.255   36.989
5 1  -25.546   16.468   37.118
6 1  -23.489   14.003   35.238
7 1  -20.004   15.593   35.333
8 1  -23.721   10.317   35.481
9 1  -20.888   10.003   33.308
10 1  -17.575   12.565   34.151
11 1  -20.024    6.922   31.954
12 1  -16.219    7.942   31.229
13 1  -15.513    9.542   35.082
14 1  -13.983    5.656   30.127
15 1  -10.847    7.655   31.226
16 1  -11.396    8.663   35.851
17 1   -7.107    6.806   30.339
18 1   -5.101    8.646   32.749
19 1   -7.071    6.800   35.903
20 1   -1.282    8.485   32.396
21 1   -0.375    9.504   36.322
22 1   -3.539    7.031   38.223
23 1    2.846    9.101   37.704
24 1    1.038    8.880   41.516
25 1   -0.831    5.379   40.129
26 1    3.097    8.511  -40.890
27 1    0.217    5.908  -38.886
28 1   -0.241    2.937  -41.662
29 1    1.024    4.806  -35.701
30 1   -0.944    1.432  -35.631
31 1    0.342    0.250  -39.058
32 1   -2.146   -7.274   40.232
33 1   -0.958   -3.388   42.332
34 1   -5.670   -7.281   39.407
35 1   -6.637   -4.857   41.966
36 1   -3.552   -0.998   41.625
37 1   -9.532   -3.690   41.800
38 1   -8.147   -0.469  -41.191
39 1   -5.369    2.257   41.715
40 1  -10.170    1.163  -39.262
41 1   -8.198    4.975  -39.110
42 1   -7.766    5.246  -43.192
43 1   -9.228    8.388  -37.344
44 1   -7.820   10.935  -40.412
45 1   -8.408    9.200   40.927
46 1   -8.114   14.322  -39.978
47 1   -7.362   14.712   41.883
48 1  -10.720   12.360   40.492
49 1   -7.454   18.325   40.197
50 1   -7.599   16.746   36.596
51 1  -11.761   13.999   36.481
52 1   -7.457   19.106   33.444
53 1   -9.415   16.261   31.178
54 1  -12.788   15.832   33.591
55 1   -9.794   16.960   27.627
56 1  -12.844   14.563   27.391
57 1  -15.855   15.931   30.893
58 1  -14.463   13.671   24.304
59 1  -17.499   12.312   25.817
60 1  -19.176   14.678   29.269
61 1  -20.165   10.522   23.610
62 1  -23.303   13.055   24.333
63 1  -27.536   10.153   23.660
ITEM: TIMESTEP
9
ITEM: NUMBER OF ATOMS
63
ITEM: BOX BOUNDS pp pp pp
-30.40479850769043 55.10919952392578
3.2494699954986572 88.76347351074219
-18.57509994506836 66.93890380859375
ITEM: ATOMS id type xu yu zu
1 1  -25.839    3.249   -1.042
2 1  -28.734    4.105    1.951
3 1  -25.445    5.762   -3.900
4 1  -29.333    6.324   -4.531
5 1  -30.104    9.240   -7.393
6 1  -29.978   11.870   -4.665
7 1  -26.612   10.071   -2.651
8 1  -30.405   15.134   -5.349
9 1  -28.603   16.278   -1.852
10 1  -24.695   13.830   -1.978
11 1  -27.929   20.173   -1.166
12 1  -24.092   19.517    0.416
13 1  -22.537   16.781   -2.798
14 1  -22.155   22.156    1.148
15 1  -18.618   20.465    1.065
16 1  -18.508   18.766   -3.236
17 1  -16.168   22.474    1.693
18 1  -13.191   20.445   -0.255
19 1  -15.728   20.980   -4.076
20 1   -9.571   21.488   -0.555
21 1   -9.086   19.402   -3.314
22 1  -12.036   21.434   -6.517
23 1   -5.607   19.044   -4.676
24 1   -6.671   18.396   -8.206
25 1   -9.096   22.089   -8.579
26 1   -3.691   18.152  -10.620
27 1   -5.660   19.011  -13.668
28 1   -7.518   22.777  -12.337
29 1   -3.877   19.166  -16.764
30 1   -6.588   21.328  -18.575
31 1   -5.963   24.516  -15.704
32 1  -10.746   33.347  -12.663
33 1   -8.614   28.832  -13.039
34 1  -14.075   33.084  -12.238
35 1  -14.606   29.751  -14.631
36 1  -11.500   26.347  -13.003
37 1  -18.062   28.153  -14.984
38 1  -16.705   25.019  -15.697
39 1  -13.933   24.266  -11.763
40 1  -18.768   22.525  -16.222
41 1  -16.565   19.880  -15.140
42 1  -16.408   21.446  -11.006
43 1  -16.913   16.555  -15.631
44 1  -14.736   15.450  -12.663
45 1  -16.047   17.630   -9.068
46 1  -14.617   12.074  -12.419
47 1  -13.908   12.119   -8.152
48 1  -17.193   14.615   -7.378
49 1  -13.486    8.597   -6.429
50 1  -14.521   10.348   -2.836
51 1  -18.925   12.148   -3.434
52 1  -14.591    8.463   -0.438
53 1  -16.764   11.195    2.228
54 1  -20.119   10.645   -0.244
55 1  -17.332   10.556    5.451
56 1  -20.775   12.668    5.800
57 1  -23.685   10.188    2.643
58 1  -22.266   13.489    9.227
59 1  -25.914   14.071    7.298
60 1  -26.837    9.672    4.713
61 1  -28.643   14.206    9.645
62 1  -29.077   10.139   10.239
63 1  -29.627    7.435    6.261
ITEM: TIMESTEP
10
ITEM: NUMBER OF ATOMS
63
ITEM: BOX BOUNDS pp pp pp
-42.17340087890625 43.340599060058594
-42.15690231323242 43.35709762573242
-31.867900848388672 53.64609909057617
ITEM: ATOMS id type xu yu zu
1 1  -32.804    2.195   24.857
2 1  -29.335    1.957   27.121
3 1  -32.075    3.157   21.413
4 1  -33.511    6.895   21.841
5 1  -33.704    8.998   18.760
6 1  -36.286   12.111   20.011
7 1  -37.294   10.368   23.378
8 1  -38.438   13.774   18.378
9 1  -38.941   16.180   21.268
10 1  -38.804   14.466   25.301
11 1  -41.408   18.447   21.019
12 1  -39.841   21.373   23.317
13 1  -36.439   21.280   21.559
14 1  -40.406   20.820   27.072
15 1  -41.095   24.359   28.485
16 1   41.462   26.410   25.433
17 1  -42.173   24.662   32.097
18 1   41.152   28.028   31.102
19 1  -41.506   30.094   29.348
20 1   39.525   30.267   33.841
21 1   36.654   31.360   31.234
22 1   38.694   34.642   28.525
23 1   33.112   31.848   32.148
24 1   32.080   33.757   28.763
25 1   35.390   36.318   28.325
26 1   29.153   34.593   27.758
27 1   30.231   38.149   25.867
28 1   34.126   37.540   24.482
29 1   27.929   39.987   23.555
30 1   30.525   41.145   20.782
31 1   32.811   37.992   20.659
32 1  -18.797   27.896  -14.039
33 1  -20.303   31.215  -16.866
34 1  -16.277   25.656  -15.362
35 1  -17.925   24.994  -18.811
36 1  -20.891   28.529  -19.563
37 1  -16.264   24.037  -21.411
38 1  -18.312   25.613  -23.768
39 1  -18.771   30.104  -22.014
40 1  -17.408   25.828  -27.472
41 1  -19.203   29.412  -28.361
42 1  -21.483   29.752  -24.725
43 1  -21.338   29.301  -31.019
44 1  -23.651   32.225  -29.590
45 1  -27.693   31.157  -30.658
46 1  -22.714   36.066  -29.950
47 1  -26.226   37.099  -28.982
48 1  -28.046   34.435  -31.868
49 1  -26.685   40.854  -29.502
50 1  -25.687   41.799  -26.265
51 1  -21.318   40.913  -25.423
52 1  -26.619  -40.842  -24.727
53 1  -25.084  -41.664  -21.002
54 1  -21.623  -41.958  -23.050
55 1  -25.157  -39.465  -18.231
56 1  -21.160  -38.214  -19.297
57 1  -18.488  -42.157  -20.083
58 1  -19.569  -35.821  -17.717
59 1  -18.486  -38.055  -14.964
60 1  -16.610  -41.739  -16.910
61 1  -15.988  -36.706  -12.455
62 1  -14.645  -40.571  -11.444
63 1  -13.258  -42.093  -15.430
ITEM: TIMESTEP
11
ITEM: NUMBER OF ATOMS
63
ITEM: BOX BOUNDS pp pp pp
2.3064799308776855 87.82048034667969
5.152940273284912 90.66693878173828
-8.492420196533203 77.02157592773438
ITEM: ATOMS id type xu yu zu
1 1    8.165   26.029    7.577
2 1   11.051   28.818    6.549
3 1    7.390   25.358   11.110
4 1    9.590   22.107   11.337
5 1   10.015   20.758   14.531
6 1   13.199   18.389   13.133
7 1   11.400   18.423    9.333
8 1   17.027   19.238   13.376
9 1   17.770   16.792   11.069
10 1   15.403   18.054    7.406
11 1   20.843   16.081   10.134
12 1   20.253   15.826    5.978
13 1   18.597   19.423    5.523
14 1   22.676   15.142    4.031
15 1   21.236   16.593    0.854
16 1   20.240   20.642    1.820
17 1   23.176   16.146   -2.067
18 1   21.883   19.530   -4.103
19 1   22.599   21.765   -0.943
20 1   22.926   20.405   -6.960
21 1   21.574   24.495   -6.286
22 1   22.911   25.713   -1.879
23 1   22.502   26.744   -8.492
24 1   22.489   29.656   -6.480
25 1   25.238   28.073   -3.894
26 1   23.121   32.866   -7.868
27 1   24.341   34.350   -4.731
28 1   27.566   31.711   -4.470
29 1   24.833   37.615   -4.405
30 1   27.612   37.069   -1.497
31 1   30.361   34.347   -3.406
32 1   36.494   26.720    0.572
33 1   32.936   29.753   -1.982
34 1   34.839   25.096    3.967
35 1   32.525   28.215    4.266
36 1   29.785   28.929   -0.183
37 1   30.571   29.014    7.128
38 1   27.863   30.952    5.249
39 1   26.737   28.345    1.809
40 1   25.089   32.155    7.261
41 1   22.647   32.313    3.945
42 1   23.509   27.715    3.711
43 1   19.014   33.321    4.245
44 1   17.784   30.987    1.425
45 1   19.935   26.617    1.770
46 1   14.336   30.525    1.046
47 1   14.667   27.099   -1.562
48 1   16.543   25.165    1.621
49 1   11.568   25.347   -2.624
50 1   13.284   22.207   -2.976
51 1   14.847   21.394    1.534
52 1   11.773   19.124   -3.828
53 1   14.312   16.451   -1.530
54 1   13.216   18.038    1.798
55 1   13.051   12.686   -1.687
56 1   13.963   11.661    1.908
57 1   11.822   14.617    4.977
58 1   13.694    8.356    3.125
59 1   10.636    8.972    6.204
60 1   11.526   12.808    8.374
61 1    6.802    8.785    5.535
62 1    6.292    7.623    9.233
63 1    2.306    5.153    9.667
ITEM: TIMESTEP
12
ITEM: NUMBER OF ATOMS
63
ITEM: BOX BOUNDS pp pp pp
-43.148399353027344 42.3656005859375
5.382309913635254 90.89630889892578
-42.79620361328125 42.717796325683594
ITEM: ATOMS id type xu yu zu
1 1   31.384   37.974  -29.755
2 1   28.926   34.116  -29.761
3 1   31.403   39.943  -32.926
4 1   31.078   36.774  -34.920
5 1   29.439   36.785  -38.386
6 1   27.684   33.473  -37.485
7 1   27.853   32.467  -41.312
8 1   29.089   31.156  -35.014
9 1   27.004   28.122  -36.497
10 1   27.676   28.142  -41.145
11 1   27.268   25.285  -35.365
12 1   25.703   23.442  -38.001
13 1   28.702   24.559  -40.883
14 1   25.051   19.769  -37.927
15 1   24.911   19.096  -41.631
16 1   28.540   21.094   42.346
17 1   24.780   15.879   42.701
18 1   26.074   17.436   39.540
19 1   29.784   17.704   40.967
20 1   25.684   15.845   36.660
21 1   28.564   17.416   34.703
22 1   32.135   16.593   37.602
23 1   29.396   16.432   31.679
24 1   33.387   16.775   31.702
25 1   34.147   14.245   35.202
26 1   35.477   15.869   28.801
27 1   39.185   15.454   30.702
28 1   37.892   13.347   33.453
29 1   42.167   14.050   28.827
30 1   40.156   10.464   27.884
31 1   37.940    9.921   31.297
32 1   40.026    5.382   40.058
33 1   38.423    8.476   36.663
34 1   39.228    7.124  -42.429
35 1   41.396    9.858   42.052
36 1   38.951   11.532   38.632
37 1   42.198   12.454  -40.978
38 1   42.115   15.603   41.695
39 1   38.371   14.950   39.462
40 1  -43.148   19.022   42.726
41 1   40.610   20.113   39.710
42 1   37.085   18.201   40.488
43 1   40.380   23.307   38.842
44 1   37.493   22.610   36.761
45 1   34.046   20.995   39.209
46 1   36.078   25.130   34.307
47 1   32.305   23.924   33.930
48 1   32.130   24.244   38.388
49 1   29.819   26.328   32.316
50 1   26.818   24.841   34.276
51 1   28.066   25.455   38.925
52 1   23.733   26.436   33.431
53 1   22.324   25.688   37.533
54 1   25.273   27.997   39.100
55 1   18.631   26.994   38.067
56 1   19.109   27.116   41.510
57 1   23.225   29.038  -42.796
58 1   15.909   27.835  -41.686
59 1   18.220   30.362  -39.453
60 1   21.284   32.466  -42.301
61 1   17.125   31.997  -36.960
62 1   20.066   34.900  -37.153
63 1   21.456   35.955  -41.092
ITEM: TIMESTEP
13
ITEM: NUMBER OF ATOMS
63
ITEM: BOX BOUNDS pp pp pp
-34.461299896240234 51.05270004272461
-42.442596435546875 43.07140350341797
-42.77690124511719 42.737098693847656
ITEM: ATOMS id type xu yu zu
1 1  -30.389   41.409  -20.935
2 1  -30.637   37.563  -21.352
3 1  -28.173  -42.443  -23.469
4 1  -25.624   39.907  -24.056
5 1  -23.049   40.172  -26.772
6 1  -21.991   36.516  -25.990
7 1  -25.382   35.474  -27.955
8 1  -19.211   35.106  -27.500
9 1  -20.550   31.523  -26.840
10 1  -24.191   31.718  -29.964
11 1  -18.604   28.482  -27.156
12 1  -21.657   26.415  -28.657
13 1  -22.169   28.991  -31.990
14 1  -21.593   22.664  -29.532
15 1  -24.512   22.875  -32.189
16 1  -23.427   26.449  -35.032
17 1  -25.741   20.154  -34.051
18 1  -27.155   22.613  -37.058
19 1  -23.369   24.089  -37.948
20 1  -28.983   20.819  -40.124
21 1  -28.046   23.418  -42.754
22 1  -23.153   24.177  -42.143
23 1  -28.663   22.663   39.957
24 1  -26.122   25.616   38.110
25 1  -22.853   23.582   39.704
26 1  -26.204   26.271   34.409
27 1  -22.162   27.049   33.900
28 1  -20.431   23.673   35.945
29 1  -20.955   28.086   30.782
30 1  -17.083   26.012   30.947