ITEM: TIMESTEP
0
ITEM: NUMBER OF ATOMS
63
ITEM: BOX BOUNDS pp pp pp
-27.388599395751953 58.12540054321289
4.628979682922363 90.14298248291016
-40.963897705078125 44.55010223388672
ITEM: ATOMS id type xu yu zu
1 1   -0.493   26.037  -20.971
2 1    1.538   23.255  -23.042
3 1   -1.040   29.237  -22.379
4 1   -2.900   27.274  -25.298
5 1   -1.080   23.173  -26.155
6 1   -4.113   28.943  -28.051
7 1   -6.502   26.637  -29.165
8 1   -4.064   23.228  -29.200
9 1   -7.853   27.103  -32.381
10 1   -9.680   24.049  -31.937
11 1  -12.369   23.033  -34.325
12 1  -11.603   18.915  -34.433
13 1  -10.075   18.970  -30.583
14 1  -14.373   16.230  -35.461
15 1  -13.077   13.357  -33.609
16 1  -11.844   15.290  -29.554
17 1  -14.600   10.292  -33.525
18 1  -12.586    9.403  -30.429
19 1  -14.520   12.636  -28.604
20 1  -13.224    6.245  -28.745
21 1  -12.253    7.109  -25.289
22 1  -15.062   11.349  -24.589
23 1  -12.800    4.629  -22.805
24 1  -13.899    7.505  -20.168
25 1  -16.925    9.035  -22.619
26 1  -14.907    6.838  -16.678
27 1  -16.418    9.945  -15.956
28 1  -19.487   10.650  -19.435
29 1  -17.627   10.673  -12.483
30 1  -20.656   12.926  -13.357
31 1  -21.649   10.040  -16.428
32 1  -27.389   11.718  -27.467
33 1  -24.665    9.577  -24.336
34 1  -25.959   15.182  -28.091
35 1  -25.224   16.465  -24.826
36 1  -23.551   12.920  -23.581
37 1  -23.428   19.113  -24.797
38 1  -21.924   18.398  -21.626
39 1  -19.619   14.387  -23.040
40 1  -19.415   20.929  -19.782
41 1  -17.047   18.027  -18.550
42 1  -16.762   16.493  -22.371
43 1  -13.867   18.561  -16.785
44 1  -11.811   15.669  -18.891
45 1  -12.906   15.720  -23.741
46 1   -8.136   15.479  -18.781
47 1   -7.611   13.331  -21.710
48 1   -9.331   15.818  -24.284
49 1   -4.165   11.599  -22.768
50 1   -4.909   11.341  -26.320
51 1   -7.007   15.258  -27.586
52 1   -1.843   10.460  -28.591
53 1   -3.311   12.660  -31.883
54 1   -3.653   16.296  -29.024
55 1   -1.103   12.920  -34.747
56 1   -2.727   16.300  -36.183
57 1   -2.531   19.644  -33.091
58 1   -2.777   17.337  -39.679
59 1   -1.970   21.337  -38.644
60 1   -4.186   22.153  -35.151
61 1   -1.714   24.053  -40.964
62 1   -0.665   21.454   41.804
63 1   -5.042   20.316   39.974
ITEM: TIMESTEP
1
ITEM: NUMBER OF ATOMS
63
ITEM: BOX BOUNDS pp pp pp
-41.60260009765625 43.911399841308594
-42.57350158691406 42.94049835205078
-34.24079895019531 51.27320098876953
ITEM: ATOMS id type xu yu zu
1 1   40.326   40.983  -33.152
2 1  -41.603   41.532  -34.241
3 1   39.777   37.718  -31.820
4 1   39.452   38.496  -27.859
5 1   39.915  -42.574  -27.183
6 1   36.612   37.412  -25.703
7 1   35.550   41.297  -24.756
8 1   39.111   42.123  -23.775
9 1   33.501   41.772  -22.351
10 1   31.655  -40.238  -24.003
11 1   32.099  -36.858  -22.987
12 1   27.866  -36.249  -22.081
13 1   26.827  -36.738  -25.651
14 1   26.571  -33.187  -20.294
15 1   23.419  -32.598  -22.451
16 1   22.785  -36.845  -24.541
17 1   20.516  -31.305  -21.084
18 1   19.798  -34.522  -18.624
19 1   20.625  -37.179  -21.510
20 1   16.618  -34.666  -17.380
21 1   15.004  -36.106  -20.484
22 1   17.362  -40.040  -21.110
23 1   11.372  -36.557  -20.288
24 1   11.593  -39.697  -21.882
25 1   14.426  -41.386  -19.149
26 1    8.650  -41.876  -22.668
27 1    8.272   41.938  -18.918
28 1   12.719   40.140  -17.986
29 1    5.924   39.504  -18.286
30 1    6.366   40.103  -14.451
31 1   10.776   40.091  -14.654
32 1   38.249    6.982  -11.262
33 1   36.386    5.863  -14.965
34 1   36.907    9.616  -10.233
35 1   34.861   10.563  -13.515
36 1   37.752    9.397  -15.706
37 1   33.251   13.426  -13.944
38 1   34.054   13.492  -17.611
39 1   34.309    9.319  -19.108
40 1   31.369   15.225  -19.871
41 1   31.804   12.138  -22.445
42 1   30.488    9.587  -19.526
43 1   30.013   12.319  -25.111
44 1   29.288    8.303  -25.384
45 1   27.747    6.915  -21.200
46 1   27.291    6.180  -27.980
47 1   25.604    3.719  -25.297
48 1   24.424    7.223  -22.736
49 1   22.877    1.308  -26.184
50 1   20.288    4.017  -25.085
51 1   20.354    7.360  -28.745
52 1   20.005    5.542  -21.983
53 1   16.328    6.883  -22.407
54 1   16.021    4.518  -26.423
55 1   14.037    6.205  -19.897
56 1   10.815    5.952  -22.232
57 1   11.772    4.113  -26.663
58 1    7.480    5.372  -20.897
59 1    6.026    6.412  -24.385
60 1    8.165    3.912  -26.910
61 1    2.876    6.178  -25.042
62 1    3.742    6.369  -29.028
63 1    6.211    2.491  -30.277
ITEM: TIMESTEP
2
ITEM: NUMBER OF ATOMS
63
ITEM: BOX BOUNDS pp pp pp
-19.191499710083008 66.32250213623047
-18.29439926147461 67.2196044921875
-36.05139923095703 49.46260070800781
ITEM: ATOMS id type xu yu zu
1 1    8.731   13.235   -7.718
2 1    6.387   14.871  -10.458
3 1   11.792   12.011   -9.276
4 1   12.299   14.965  -10.974
5 1    8.856   16.112  -13.627
6 1   15.574   15.329  -12.989
7 1   14.590   18.261  -15.291
8 1   11.128   16.220  -16.571
9 1   17.424   19.627  -17.805
10 1   17.014   23.125  -17.025
11 1   18.545   25.514  -18.865
12 1   19.334   27.764  -15.405
13 1   18.702   31.456  -16.731
14 1   18.488   26.446  -11.786
15 1   16.338   29.691  -10.708
16 1   14.090   31.090  -14.543
17 1   14.454   29.228   -8.108
18 1   10.836   29.769  -10.499
19 1   12.081   27.966  -13.989
20 1    7.715   28.802   -9.422
21 1    6.083   28.942  -12.958
22 1    8.500   25.872  -15.202
23 1    2.499   28.348  -13.923
24 1    2.190   24.623  -12.226
25 1    5.719   23.766  -13.599
26 1   -0.238   22.976  -13.182
27 1   -0.465   20.373   -9.669
28 1   -1.963   16.632  -10.680
29 1    1.968   20.596   -7.529
30 1    0.794   17.651   -5.383
31 1    0.635   15.188   -8.535
32 1  -17.080  -15.364  -23.389
33 1  -19.191  -13.529  -27.476
34 1  -17.149  -13.109  -20.600
35 1  -15.015  -10.541  -22.115
36 1  -17.042  -11.113  -25.585
37 1  -11.513  -11.086  -22.007
38 1  -10.962  -13.064  -25.378
39 1  -12.170  -10.380  -28.539
40 1   -7.569  -14.896  -26.041
41 1   -8.182  -15.777  -29.877
42 1   -9.798  -12.097  -30.689
43 1   -5.630  -17.465  -31.938
44 1   -4.044  -14.345  -33.434
45 1   -8.396  -12.092  -34.706
46 1   -1.720  -14.858  -36.051
47 1    0.713  -13.069  -34.164
48 1   -1.110  -13.717  -30.307
49 1    3.800  -13.747  -34.640
50 1    4.596  -13.390  -30.959
51 1    5.872  -17.185  -29.718
52 1    3.121  -10.851  -28.389
53 1    6.643  -11.108  -26.083
54 1    6.841  -15.259  -26.638
55 1    9.600   -9.055  -27.331
56 1   10.426  -11.422  -29.968
57 1   10.788  -15.917  -28.356
58 1   13.506  -10.481  -32.010
59 1   16.273  -11.452  -29.004
60 1   14.443  -15.168  -28.434
61 1   19.800  -11.487  -29.708
62 1   19.554  -14.770  -32.401
63 1   16.625  -18.294  -30.020
ITEM: TIMESTEP
3
ITEM: NUMBER OF ATOMS
63
ITEM: BOX BOUNDS pp pp pp
-19.29720115661621 66.216796875
0.26937001943588257 85.78337097167969
-9.639430046081543 75.87457275390625
ITEM: ATOMS id type xu yu zu
1 1  -11.922   13.183   -8.492
2 1  -11.346   15.720   -5.963
3 1   -8.946   10.955   -9.639
4 1   -7.874   10.016   -5.847
5 1   -8.785   13.631   -3.515
6 1   -5.062    8.497   -4.867
7 1   -3.337   12.006   -3.240
8 1   -6.325   12.616   -0.994
9 1   -0.046   11.869   -0.893
10 1   -2.044   12.306    2.070
11 1   -0.342   13.288    5.315
12 1   -3.365   15.266    7.353
13 1   -5.810   12.170    7.289
14 1   -2.606   16.730   10.227
15 1   -6.730   16.692   11.000
16 1   -7.869   12.479   10.800
17 1   -7.772   18.272   13.707
18 1  -11.048   16.153   13.951
19 1   -8.578   12.574   14.300
20 1  -13.639   16.900   16.182
21 1  -15.046   13.293   16.362
22 1  -11.122   10.319   17.247
23 1  -17.936   12.468   18.465
24 1  -17.046    8.681   19.137
25 1  -12.986    9.322   20.673
26 1  -19.297    6.684   21.483
27 1  -16.569    3.922   22.060
28 1  -13.151    6.512   24.066
29 1  -17.011    0.934   23.883
30 1  -12.906    0.269   24.066
31 1  -12.713    3.788   26.348
32 1   -4.515    9.322   29.132
33 1   -8.947    8.167   27.945
34 1   -2.133    8.509   26.790
35 1   -4.351    5.174   25.035
36 1   -7.373    7.544   24.699
37 1   -2.918    4.048   22.129
38 1   -5.587    2.552   20.516
39 1   -8.150    6.116   20.080
40 1   -5.337    0.564   17.329
41 1   -8.740    1.461   16.520
42 1   -8.170    5.344   16.546
43 1  -10.281    0.282   13.147
44 1  -12.664    3.097   12.975
45 1   -9.989    7.067   12.857
46 1  -15.113    3.190   10.572
47 1  -15.884    7.396   10.461
48 1  -11.840    8.288   10.025
49 1  -17.881    8.350    7.630
50 1  -16.576   12.051    7.366
51 1  -11.788   11.584    6.824
52 1  -18.269   14.381    4.656
53 1  -15.521   17.337    5.261
54 1  -12.098   14.693    4.796
55 1  -15.476   20.704    3.410
56 1  -11.163   20.970    2.980
57 1   -9.679   16.545    1.287
58 1   -9.622   23.568    0.912
59 1   -6.514   21.572   -0.318
60 1   -8.956   18.905   -1.827
61 1   -4.039   23.052   -2.746
62 1   -6.680   24.140   -5.659
63 1   -9.712   20.937   -5.460
ITEM: TIMESTEP
4
ITEM: NUMBER OF ATOMS
63
ITEM: BOX BOUNDS pp pp pp
-13.113699913024902 72.40029907226562
-42.731597900390625 42.78240203857422
-37.15530014038086 48.358699798583984
ITEM: ATOMS id type xu yu zu
1 1   29.509  -41.156  -37.155
2 1   25.281   43.244  -36.159
3 1   32.288  -42.732  -35.435
4 1   29.970   41.602  -32.714
5 1   26.482   39.068  -34.743
6 1   31.206   39.844  -29.839
7 1   27.983   37.615  -28.719
8 1   27.079   36.017  -32.859
9 1   27.688   35.020  -25.896
10 1   23.733   33.793  -26.462
11 1   22.304   30.947  -24.043
12 1   18.331   32.227  -24.653
13 1   18.297   29.879  -28.044
14 1   15.868   31.369  -21.948
15 1   12.969   31.760  -24.341
16 1   13.861   29.645  -28.045
17 1    9.169   31.124  -23.450
18 1    7.718   29.865  -27.199
19 1   11.257   27.027  -27.942
20 1    4.075   28.610  -27.727
21 1    4.973   26.168  -31.278
22 1    9.152   24.124  -30.358
23 1    2.130   24.003  -32.135
24 1    2.828   21.576  -28.759
25 1    6.677   22.218  -28.443
26 1    1.006   21.559  -25.741
27 1   -2.766   22.172  -27.883
28 1   -3.293   18.293  -30.404
29 1   -5.845   22.451  -25.993
30 1   -8.052   20.652  -28.460
31 1   -5.827   17.155  -28.156
32 1    8.588   14.843  -14.357
33 1   12.775   16.312  -14.942
34 1    9.104   11.151  -13.773
35 1   10.876   12.395  -10.207
36 1   14.029   14.336  -11.880
37 1   11.617    9.940   -7.420
38 1   11.429   12.583   -4.613
39 1   14.438   16.222   -5.444
40 1   11.998   11.371   -1.216
41 1   11.332   14.728    0.656
42 1   13.102   16.724   -1.866
43 1   12.049   15.217    4.259
44 1   10.274   18.537    4.869
45 1    7.105   18.823    1.412
46 1    8.721   19.363    7.683
47 1    6.532   22.149    6.157
48 1    4.064   19.454    3.459
49 1    4.852   24.155    8.392
50 1    2.334   25.380    5.830
51 1    1.809   22.797    2.306
52 1   -0.819   26.727    6.852
53 1   -2.702   25.089    3.752
54 1    0.819   26.112    1.268
55 1   -5.582   26.152    2.496
56 1   -5.282   24.490   -1.308
57 1   -0.809   25.303   -2.789
58 1   -8.187   25.227   -3.988
59 1  -10.028   21.345   -3.733
60 1   -7.311   19.652   -1.239
61 1  -13.114   20.929   -1.983
62 1  -12.700   17.036   -1.287
63 1   -8.180   16.148    0.793
ITEM: TIMESTEP
5
ITEM: NUMBER OF ATOMS
63
ITEM: BOX BOUNDS pp pp pp
-2.8380000591278076 82.6760025024414
-7.221720218658447 78.29228210449219
-41.673004150390625 43.84099578857422
ITEM: ATOMS id type xu yu zu
1 1   32.136   -5.771   -7.925
2 1   29.485   -7.222  -10.003
3 1   32.814   -2.482   -8.741
4 1   30.445   -2.561  -12.077
5 1   26.085   -4.870  -11.367
6 1   30.116    0.201  -14.122
7 1   26.757   -0.922  -16.298
8 1   24.217   -2.179  -13.076
9 1   25.193    1.249  -18.906
10 1   23.614    4.057  -17.255
11 1   20.235    3.771  -16.792
12 1   19.474    7.103  -17.993
13 1   19.682    6.580  -22.120
14 1   16.693    8.634  -17.244
15 1   15.140    8.622  -20.551
16 1   18.428   11.132  -23.042
17 1   11.415    9.922  -21.252
18 1   12.430   13.459  -19.704
19 1   16.177   13.556  -21.568
20 1   10.472   16.020  -19.719
21 1   13.086   18.195  -19.285
22 1   15.046   17.284  -23.441
23 1   12.146   21.783  -18.629
24 1   15.443   22.912  -20.787
25 1   13.939   20.621  -24.356
26 1   15.813   25.968  -21.244
27 1   17.399   25.794  -24.629
28 1   14.213   24.035  -27.493
29 1   19.338   28.733  -26.227
30 1   19.190   27.642  -29.863
31 1   14.835   26.993  -29.687
32 1   12.136    9.543  -33.755
33 1   10.290   13.425  -33.360
34 1    9.404    7.148  -34.995
35 1    9.702    8.571  -38.575
36 1    8.740   12.178  -36.459
37 1    7.750    7.514  -41.673
38 1    4.676    9.071  -40.008
39 1    5.758   13.224  -39.190
40 1    1.719    8.647  -41.428
41 1    0.796   12.295  -41.494
42 1    4.966   13.461   42.780
43 1   -1.455   13.531   41.960
44 1   -0.882   17.026   42.332
45 1    3.585   17.297   41.071
46 1   -2.838   19.703   40.571
47 1   -0.989   22.299   41.784
48 1    2.094   20.545   39.950
49 1   -1.674   26.263   41.193
50 1    1.996   27.154   39.256
51 1    2.848   23.536   37.184
52 1    3.099   30.532   37.581
53 1    6.447   28.735   35.507
54 1    4.058   25.485   34.097
55 1    8.573   30.801   33.233
56 1   10.278   28.020   31.610
57 1    7.617   23.983   31.973
58 1   12.498   28.539   28.561
59 1   11.734   24.952   26.340
60 1   10.442   22.321   28.961
61 1   14.352   24.046   24.005
62 1   15.789   21.569   26.656
63 1   14.728   23.967   30.975
ITEM: TIMESTEP
6
ITEM: NUMBER OF ATOMS
63
ITEM: BOX BOUNDS pp pp pp
-13.113699913024902 72.40029907226562
-42.731597900390625 42.78240203857422
-37.15530014038086 48.358699798583984
ITEM: ATOMS id type xu yu zu
1 1   29.509  -41.156  -37.155
2 1   25.281   43.244  -36.159
3 1   32.288  -42.732  -35.435
4 1   29.970   41.602  -32.714
5 1   26.482   39.068  -34.743
6 1   31.206   39.844  -29.839
7 1   27.983   37.615  -28.719
8 1   27.079   36.017  -32.859
9 1   27.688   35.020  -25.896
10 1   23.733   33.793  -26.462
11 1   22.304   30.947  -24.043
12 1   18.331   32.227  -24.653
13 1   18.297   29.879  -28.044
14 1   15.868   31.369  -21.948
15 1   12.969   31.760  -24.341
16 1   13.861   29.645  -28.045
17 1    9.169   31.124  -23.450
18 1    7.718   29.865  -27.199
19 1   11.257   27.027  -27.942
20 1    4.075   28.610  -27.727
21 1    4.973   26.168  -31.278
22 1    9.152   24.124  -30.358
23 1    2.130   24.003  -32.135
24 1    2.828   21.576  -28.759
25 1    6.677   22.218  -28.443
26 1    1.006   21.559  -25.741
27 1   -2.766   22.172  -27.883
28 1   -3.293   18.293  -30.404
29 1   -5.845   22.451  -25.993
30 1   -8.052   20.652  -28.460
31 1   -5.827   17.155  -28.156
32 1    8.588   14.843  -14.357
33 1   12.775   16.312  -14.942
34 1    9.104   11.151  -13.773
35 1   10.876   12.395  -10.207
36 1   14.029   14.336  -11.880
37 1   11.617    9.940   -7.420
38 1   11.429   12.583   -4.613
39 1   14.438   16.222   -5.444
40 1   11.998   11.371   -1.216
41 1   11.332   14.728    0.656
42 1   13.102   16.724   -1.866
43 1   12.049   15.217    4.259
44 1   10.274   18.537    4.869
45 1    7.105   18.823    1.412
46 1    8.721   19.363    7.683
47 1    6.532   22.149    6.157
48 1    4.064   19.454    3.459
49 1    4.852   24.155    8.392
50 1    2.334   25.380    5.830
51 1    1.809   22.797    2.306
52 1   -0.819   26.727    6.852
53 1   -2.702   25.089    3.752
54 1    0.819   26.112    1.268
55 1   -5.582   26.152    2.496
56 1   -5.282   24.490   -1.308
57 1   -0.809   25.303   -2.789
58 1   -8.187   25.227   -3.988
59 1  -10.028   21.345   -3.733
60 1   -7.311   19.652   -1.239
61 1  -13.114   20.929   -1.983
62 1  -12.700   17.036   -1.287
63 1   -8.180   16.148    0.793
ITEM: TIMESTEP
7
ITEM: NUMBER OF ATOMS
63
ITEM: BOX BOUNDS pp pp pp
-15.98080062866211 69.533203125
-40.73460006713867 44.77939987182617
-27.91830062866211 57.595699310302734
ITEM: ATOMS id type xu yu zu
1 1   -8.518   42.211  -11.838
2 1  -11.389  -40.735  -13.811
3 1   -8.999   41.260   -8.372
4 1   -7.524   37.514   -8.695
5 1  -10.237   35.255  -12.550
6 1   -7.288   35.310   -5.792
7 1   -9.411   32.434   -8.148
8 1  -12.063   34.780   -9.403
9 1  -10.338   29.267   -6.752
10 1  -10.584   27.129  -10.176
11 1   -8.293   24.293  -11.029
12 1   -7.909   22.669   -7.216
13 1  -10.366   25.596   -5.683
14 1   -8.332   19.250   -6.216
15 1   -8.525   20.119   -2.406
16 1  -11.189   24.064   -1.849
17 1   -5.275   20.013   -0.285
18 1   -5.848   23.367    1.035
19 1   -9.373   21.620    3.319
20 1   -3.118   25.182    3.180
21 1   -4.562   24.961    6.473
22 1   -1.365   26.848    9.726
23 1   -8.427   24.828    7.613
24 1   -7.930   25.080   11.258
25 1   -3.728   24.055   11.262
26 1   -8.657   28.112   12.793
27 1  -12.115   27.283   13.674
28 1  -11.950   22.389   14.367
29 1  -13.523   28.895   16.900
30 1  -15.981   26.246   17.689
31 1  -13.049   23.117   17.753
32 1   15.949   -5.692    0.623
33 1   12.525   -4.204   -2.298
34 1   19.010   -4.196    0.213
35 1   18.509   -4.017   -3.803
36 1   15.207   -1.688   -3.087
37 1   20.805   -2.336   -6.013
38 1   18.029   -1.688   -8.363
39 1   15.513    1.121   -6.295
40 1   18.873   -0.263  -11.280
41 1   15.340   -0.675  -12.951
42 1   13.415    0.582   -9.127
43 1   14.261    0.976  -15.872
44 1   10.450    0.990  -14.702
45 1   10.366    3.242  -10.409
46 1    7.738    2.094  -16.997
47 1    5.673    1.983  -14.261
48 1    7.777    4.752  -12.640
49 1    4.932   -0.900  -12.543
50 1    1.145    0.214  -12.177
51 1    0.530    0.913  -16.961
52 1   -1.336   -1.706  -10.624
53 1   -3.764   -1.511  -14.147
54 1   -0.267   -2.547  -16.450
55 1   -6.720   -2.976  -14.543
56 1   -6.790   -2.915  -18.211
57 1   -2.491   -4.315  -19.826
58 1   -9.736   -4.682  -19.922
59 1   -8.202   -3.377  -22.983
60 1   -4.895   -5.869  -22.218
61 1   -9.586   -3.843  -25.937
62 1   -6.309   -3.054  -27.918
63 1   -2.846   -6.089  -25.941
ITEM: TIMESTEP
8
ITEM: NUMBER OF ATOMS
63
ITEM: BOX BOUNDS pp pp pp
-15.492400169372559 70.02159881591797
-41.10700225830078 44.40699768066406
-39.98759841918945 45.52640151977539
ITEM: ATOMS id type xu yu zu
1 1   37.974   32.316  -31.964
2 1   38.298   34.887  -34.953
3 1   38.275   33.836  -28.866
4 1   37.295   37.605  -30.301
5 1   39.784   38.716  -34.289
6 1   34.376   38.684  -31.130
7 1   35.799   41.505  -33.017
8 1   33.149  -41.107  -32.634
9 1   39.389   42.736  -32.523
10 1   39.100  -40.203  -35.082
11 1   41.481  -40.458  -37.920
12 1   39.687  -37.374  -39.988
13 1   40.991  -38.506   41.883
14 1   36.417  -37.382  -39.773
15 1   35.826  -34.778   42.803
16 1   37.931  -37.242   39.201
17 1   32.772  -34.021   41.897
18 1   34.055  -32.265   38.721
19 1   34.889  -36.205   36.924
20 1   32.095  -30.156   36.794
21 1   34.846  -29.874   33.956
22 1   36.096  -33.984   33.500
23 1   34.515  -28.257   31.019
24 1   32.748  -30.995   29.217
25 1   29.741  -28.480   27.486
26 1   34.195  -33.454   27.073
27 1   31.888  -31.777   23.807
28 1   33.163  -26.980   24.093
29 1   32.552  -32.917   20.314
30 1   31.804  -29.094   18.640
31 1   34.651  -27.222   20.822
32 1    6.139    3.103  -16.413
33 1    3.871    5.552  -19.737
34 1    6.093    5.235  -13.410
35 1    2.765    7.088  -14.461
36 1    4.608    8.758  -17.408
37 1    1.080    9.534  -11.855
38 1    4.133   12.102  -12.110
39 1    6.057   12.457  -16.321
40 1    4.592   14.817  -10.224
41 1    6.993   16.591  -12.109
42 1    4.185   16.243  -15.324
43 1    8.211   20.328  -11.747
44 1    7.991   21.065  -15.933
45 1    3.295   20.390  -17.212
46 1    9.391   23.981  -17.376
47 1    7.476   23.766  -20.943
48 1    3.512   23.766  -19.090
49 1    8.029   25.793  -23.588
50 1    5.016   24.236  -26.044
51 1    1.919   24.077  -23.104
52 1    4.291   25.307  -29.012
53 1    0.941   24.049  -29.425
54 1    1.065   21.890  -25.989
55 1    0.196   22.006  -32.291
56 1   -3.508   22.928  -32.090
57 1   -3.950   26.159  -35.306
58 1   -5.103   23.947  -28.837
59 1   -7.435   27.195  -30.606
60 1   -4.007   29.021  -32.991
61 1   -8.920   29.790  -27.979
62 1  -11.707   31.424  -30.494
63 1  -15.492   32.338  -27.357
ITEM: TIMESTEP
9
ITEM: NUMBER OF ATOMS
63
ITEM: BOX BOUNDS pp pp pp
-33.78289794921875 51.731101989746094
-42.28879928588867 43.22520065307617
-41.07719802856445 44.43680191040039
ITEM: ATOMS id type xu yu zu
1 1  -22.857  -28.066  -29.735
2 1  -21.762  -31.457  -29.911
3 1  -23.412  -26.576  -33.056
4 1  -25.252  -29.711  -34.691
5 1  -24.029  -33.910  -32.544
6 1  -26.390  -29.753  -37.942
7 1  -27.803  -33.558  -37.226
8 1  -24.028  -34.916  -35.896
9 1  -29.260  -35.230  -40.231
10 1  -31.730  -32.290  -41.077
11 1  -33.302  -31.998   41.102
12 1  -32.891  -35.741   40.724
13 1  -33.783  -36.303  -41.065
14 1  -29.685  -37.057   39.929
15 1  -30.424  -38.697   36.978
16 1  -32.272  -35.276   33.737
17 1  -28.032  -41.058   35.517
18 1  -28.736  -39.446   31.679
19 1  -28.737  -35.392   32.942
20 1  -26.591  -40.231   28.889
21 1  -25.723  -36.320   27.903
22 1  -25.052  -33.753   31.569
23 1  -23.861  -35.073   24.928
24 1  -22.189  -31.871   26.870
25 1  -26.135  -29.829   26.875
26 1  -20.767  -32.519   30.526
27 1  -20.317  -28.648   31.236
28 1  -24.454  -26.333   29.121
29 1  -20.305  -27.987   34.518
30 1  -20.073  -24.297   34.396
31 1  -22.947  -23.877   31.711
32 1   -3.725  -34.789  -11.774
33 1   -1.847  -38.280  -14.254
34 1   -7.207  -34.102  -12.345
35 1   -7.147  -35.570  -16.349
36 1   -5.427  -39.387  -15.565
37 1  -10.042  -35.573  -18.206
38 1  -11.558  -39.314  -17.255
39 1  -10.675  -39.917  -12.456
40 1  -14.708  -40.707  -18.435
41 1  -13.420  -42.204  -21.859
42 1  -10.474  -39.670  -22.169
43 1  -15.442   42.406  -24.647
44 1  -14.738  -40.064  -26.388
45 1  -10.474  -39.857  -26.572
46 1  -16.249  -39.875  -29.439
47 1  -13.706  -37.826  -31.221
48 1  -10.387  -40.736  -30.122
49 1  -13.873  -36.808  -35.006
50 1  -10.005  -36.077  -35.478
51 1   -8.289  -40.264  -33.756
52 1   -9.256  -35.117  -38.300
53 1   -5.273  -36.172  -38.249
54 1   -6.577  -40.382  -37.091
55 1   -3.151  -35.708  -40.326
56 1   -0.512  -37.117  -38.548
57 1   -2.200  -41.254  -36.944
58 1    2.972  -37.423  -40.361
59 1    4.216  -39.982  -37.601
60 1    0.933  -42.289  -38.058
61 1    6.916  -41.540  -37.650
62 1    5.297   40.904  -35.794
63 1    6.428   36.696  -37.887
ITEM: TIMESTEP
10
ITEM: NUMBER OF ATOMS
63
ITEM: BOX BOUNDS pp pp pp
0.29226699471473694 85.80626678466797
-8.38601016998291 77.12799072265625
-22.31460189819336 63.199398040771484
ITEM: ATOMS id type xu yu zu
1 1    3.196   -3.384  -22.315
2 1    6.777   -3.667  -20.053
3 1    1.240   -0.751  -21.243
4 1    1.930   -1.396  -17.502
5 1    6.978   -1.775  -16.300
6 1    0.292    0.297  -14.702
7 1    2.490   -1.196  -12.056
8 1    5.957    0.290  -13.459
9 1    2.234   -0.143   -8.683
10 1    5.815   -0.283   -7.675
11 1    6.928    1.021   -4.435
12 1   10.551    1.307   -5.366
13 1    9.659    3.750   -8.253
14 1   12.393    2.684   -3.167
15 1   14.806    4.172   -5.224
16 1   12.336    6.983   -7.661
17 1   17.898    5.905   -4.196
18 1   18.165    8.216   -6.859
19 1   14.300    9.740   -6.288
20 1   21.074   10.298   -7.039
21 1   19.056   13.124   -9.197
22 1   15.043   13.825   -6.791
23 1   20.399   16.174  -10.280
24 1   17.353   18.467  -10.121
25 1   16.349   17.401   -5.991
26 1   17.602   21.792  -11.178
27 1   14.210   22.710   -9.109
28 1   14.834   21.515   -4.774
29 1   12.722   25.519   -9.959
30 1   10.792   25.819   -6.446
31 1   14.498   25.341   -4.316
32 1   14.316   21.954    5.571
33 1   15.302   23.091    1.048
34 1   11.168   19.608    5.958
35 1    9.295   20.977    2.800
36 1   13.113   20.054    0.581
37 1    6.151   19.122    1.772
38 1    6.777   19.820   -2.286
39 1   11.207   17.785   -3.135
40 1    4.316   18.231   -4.944
41 1    7.066   18.810   -7.919
42 1    9.545   16.294   -5.941
43 1    6.010   17.780  -11.098
44 1    9.809   16.860  -12.337
45 1   10.747   13.443   -9.328
46 1   10.217   15.804  -15.794
47 1   13.300   13.359  -15.021
48 1   10.767   11.164  -12.167
49 1   14.922   11.311  -17.842
50 1   16.283    8.661  -15.435
51 1   12.918    7.389  -13.031
52 1   18.323    6.292  -16.439
53 1   17.764    3.882  -13.400
54 1   13.337    3.850  -14.657
55 1   19.042    0.828  -13.330
56 1   16.293   -1.094  -11.279
57 1   11.592   -0.174  -13.400
58 1   16.762   -4.649  -10.799
59 1   13.167   -5.316   -9.914
60 1   11.459   -3.731  -13.922
61 1   12.187   -8.386   -9.266
62 1    8.329   -7.832  -10.246
63 1    8.225   -5.987  -14.823
ITEM: TIMESTEP
11
ITEM: NUMBER OF ATOMS
63
ITEM: BOX BOUNDS pp pp pp
-30.968700408935547 54.5452995300293
-43.18210220336914 42.3318977355957
3.006269931793213 88.52027130126953
ITEM: ATOMS id type xu yu zu
1 1   32.904   21.140   20.080
2 1   34.195   18.302   23.197
3 1   34.799   21.673   17.128
4 1   31.977   22.593   14.354
5 1   30.903   26.875   15.089
6 1   32.399   22.063   10.911
7 1   30.265   24.895    9.671
8 1   31.765   28.265   11.918
9 1   30.468   25.601    6.175
10 1   26.376   25.718    5.962
11 1   24.734   23.578    3.006
12 1   25.500   20.279    5.135
13 1   29.295   20.429    5.263
14 1   23.939   16.540    4.182
15 1   26.044   14.415    6.292
16 1   29.042   17.265    8.269
17 1   24.145   11.937    8.760
18 1   27.015   12.865   12.063
19 1   27.117   16.541   11.318
20 1   30.189   11.031   12.530
21 1   30.019   11.731   16.420
22 1   34.328   11.093   17.667
23 1   27.959    9.745   18.326
24 1   29.441    6.536   17.477
25 1   33.871    7.721   19.262
26 1   27.809    3.507   19.189
27 1   25.009    5.736   21.015
28 1   26.741    6.565   24.859
29 1   23.322    8.300   19.176
30 1   22.191   10.634   22.405
31 1   23.066    7.684   25.314
32 1  -29.669   15.301    7.488
33 1  -30.969   10.116    7.615
34 1  -28.799   16.670    4.749
35 1  -25.319   17.138    5.829
36 1  -24.283   12.964    5.794
37 1  -23.561   19.334    4.354
38 1  -25.269   22.654    6.373
39 1  -22.833   22.399    9.641
40 1  -26.261   26.155    5.579
41 1  -24.540   27.762    9.033
42 1  -21.406   25.604    8.662
43 1  -24.089   31.365    9.745
44 1  -21.703   30.842   13.076
45 1  -20.427   26.641   12.652
46 1  -23.372   31.357   16.483
47 1  -20.000   31.298   18.343
48 1  -18.662   35.042   16.536
49 1  -20.302   30.952   22.196
50 1  -16.335   30.287   22.095
51 1  -15.612   28.072   26.265
52 1  -13.888   32.918   21.541
53 1  -11.475   29.907   20.632
54 1  -12.505   27.322   23.847
55 1   -7.902   30.545   19.672
56 1   -8.702   32.069   15.918
57 1  -12.633   34.834   15.963
58 1   -6.289   32.978   13.972
59 1   -8.403   35.590   11.844
60 1  -10.104   37.332   15.052
61 1   -6.546   37.868    9.235
62 1  -10.075   40.013    8.491
63 1  -11.473  -43.182   12.625
ITEM: TIMESTEP
12
ITEM: NUMBER OF ATOMS
63
ITEM: BOX BOUNDS pp pp pp
-41.62479782104492 43.88920211791992
-37.749298095703125 47.76470184326172
-17.419601440429688 68.09439849853516
ITEM: ATOMS id type xu yu zu
1 1   -8.498    2.836   28.818
2 1   -6.649    0.843   31.633
3 1   -7.322    6.304   27.966
4 1   -8.031    5.633   24.357
5 1   -7.683    0.719   22.977
6 1   -6.748    8.083   21.643
7 1   -3.821    5.839   20.751
8 1   -6.621    2.574   19.924
9 1   -1.918    6.664   18.547
10 1   -1.334    3.367   17.627
11 1    0.698    2.930   15.357
12 1   -0.949   -0.656   14.680
13 1   -0.169   -1.552   18.465
14 1    0.026   -2.609   12.564
15 1   -2.422   -5.330   13.171
16 1   -7.129   -3.825   12.806
17 1   -1.827   -8.308   11.589
18 1   -5.805   -8.761   10.682
19 1   -6.499   -4.864    9.067
20 1   -7.048  -11.678    8.756
21 1  -10.345  -10.769    9.589
22 1   -9.878  -10.531   14.216
23 1  -12.076   -7.582    8.392
24 1  -14.465   -7.338   11.166
25 1  -11.373   -7.316   14.086
26 1  -16.749   -4.564   10.908
27 1  -16.718   -4.695   14.991
28 1  -11.876   -3.279   15.526
29 1  -18.743   -2.707   17.125
30 1  -16.105   -2.380   20.148
31 1  -18.678   -2.105   23.069
32 1  -40.671    6.171  -14.032
33 1  -39.330    4.987  -10.020
34 1  -39.239    4.113  -16.335
35 1  -40.430    0.609  -15.016
36 1  -40.185    1.638  -11.078
37 1  -38.512   -2.375  -15.751
38 1  -41.625   -4.438  -14.823
39 1   40.573   -1.694  -12.508
40 1   42.477   -6.374  -17.420
41 1   39.494   -8.187  -14.892
42 1   38.632   -4.505  -13.710
43 1   36.980   -9.827  -16.247
44 1   34.628   -9.185  -12.718
45 1   34.619   -4.572  -12.195
46 1   31.152  -10.202  -12.519
47 1   31.843  -13.747  -11.636
48 1   36.007  -13.646  -13.257
49 1   29.907  -16.740  -11.799
50 1   32.755  -18.332   -9.782
51 1   31.261  -22.972   -8.289
52 1   35.672  -18.693  -11.223
53 1   36.770  -21.900   -8.798
54 1   33.911  -23.937  -10.437
55 1   39.831  -23.232   -9.413
56 1   38.093  -26.995  -10.352
57 1   35.298  -26.624  -13.527
58 1   40.124  -29.349  -11.125
59 1   37.849  -32.419   -8.915
60 1   34.788  -33.240  -11.778
61 1   39.350  -34.814   -7.348
62 1   36.442  -37.749   -8.423
63 1   35.552  -37.171  -12.990
ITEM: TIMESTEP
13
ITEM: NUMBER OF ATOMS
63
ITEM: BOX BOUNDS pp pp pp
-13.119100570678711 72.3948974609375
0.9047549962997437 86.41875457763672
-25.244600296020508 60.26940155029297
ITEM: ATOMS id type xu yu zu
1 1    5.615   36.426   35.530
2 1    2.017   35.389   34.174
3 1    8.173   34.266   34.598
4 1    6.504   32.920   31.682
5 1    8.151   28.691   29.311
6 1    5.560   35.287   29.031
7 1    2.821   32.717   27.772
8 1    5.411   29.908   27.161
9 1    0.953   33.324   24.903
10 1   -0.439   36.960   26.019
11 1   -2.287   36.966   29.286
12 1   -2.588   33.056   29.259
13 1   -5.897   33.886   31.663
14 1   -3.077   30.688   25.984
15 1   -5.034   27.810   28.232
16 1   -8.187   30.307   30.786
17 1   -6.472   25.411   26.648
18 1   -7.350   23.468   29.652
19 1  -10.505   22.518   27.803
20 1   -5.203   20.463   30.392
21 1   -7.886   18.771   32.193
22 1  -11.180   18.489   28.681
23 1   -6.939   15.432   33.367
24 1  -10.288   14.044   34.434
25 1  -12.037   15.622   30.811
26 1  -10.637   10.799   35.288
27 1   -9.441    9.945   31.472
28 1  -13.119   11.849   28.802
29 1   -9.276    6.751   30.312
30 1  -12.012    7.462   27.395
31 1  -10.344   11.021   26.758