ITEM: TIMESTEP
0
ITEM: NUMBER OF ATOMS
63
ITEM: BOX BOUNDS pp pp pp
-41.485198974609375 44.02880096435547
-41.65299987792969 43.861000061035156
-40.36940002441406 45.14459991455078
ITEM: ATOMS id type xu yu zu
1 1   28.672  -23.200  -34.162
2 1   26.058  -20.379  -31.831
3 1   31.668  -22.067  -34.163
4 1   30.857  -18.440  -33.777
5 1   28.264  -17.042  -35.691
6 1   29.591  -13.079  -35.199
7 1   31.794  -12.911  -38.436
8 1   27.234  -10.418  -34.988
9 1   29.565   -7.683  -35.992
10 1   26.760   -3.477  -35.726
11 1   32.058   -7.339  -34.467
12 1   32.232   -3.446  -35.399
13 1   29.011   -2.901  -32.952
14 1   35.007   -1.765  -34.069
15 1   33.092    1.282  -34.520
16 1   29.479    1.016  -30.994
17 1   34.627    4.217  -35.090
18 1   32.089    6.387  -33.127
19 1   31.969    3.664  -29.764
20 1   32.941    9.683  -32.630
21 1   30.513   10.202  -29.380
22 1   32.019    6.947  -26.421
23 1   30.826   13.550  -27.166
24 1   34.780   12.842  -26.553
25 1   34.292    9.559  -24.889
26 1   37.127   15.291  -24.750
27 1   40.451   13.342  -26.209
28 1   39.105   12.256  -30.696
29 1  -41.485   14.700  -26.321
30 1  -41.449   12.924  -29.560
31 1   40.847   15.737  -31.052
32 1    8.319   12.003   42.391
33 1    7.356   16.320   42.109
34 1    7.092   10.489  -40.167
35 1    8.095   13.695  -38.394
36 1    5.462   16.070  -40.369
37 1    8.136   13.806  -34.432
38 1    7.389   18.104  -34.319
39 1    3.270   18.240  -37.123
40 1    6.831   19.865  -30.903
41 1    5.073   23.495  -32.384
42 1    2.280   21.114  -35.115
43 1    3.459   25.401  -29.985
44 1    0.382   26.640  -32.181
45 1   -1.432   23.134  -34.462
46 1   -2.322   28.088  -30.308
47 1   -5.419   26.385  -32.597
48 1   -4.034   22.262  -32.024
49 1   -8.707   26.370  -31.451
50 1   -8.490   29.866  -30.070
51 1   -5.490   32.470  -33.055
52 1  -11.703   31.734  -29.093
53 1   -9.961   35.521  -28.300
54 1   -6.954   35.032  -30.971
55 1  -12.424   38.562  -28.293
56 1   -9.643   41.232  -29.500
57 1   -6.176   39.341  -31.496
58 1   -8.620  -41.653  -27.409
59 1   -4.843  -41.532  -29.087
60 1   -4.223   40.127  -28.400
61 1   -2.292  -39.163  -27.684
62 1   -0.772  -38.163  -31.142
63 1   -4.034  -36.455  -33.722
ITEM: TIMESTEP
1
ITEM: NUMBER OF ATOMS
63
ITEM: BOX BOUNDS pp pp pp
-21.542499542236328 63.971500396728516
-30.178001403808594 55.33599853515625
-15.362800598144531 70.15119934082031
ITEM: ATOMS id type xu yu zu
1 1  -21.542  -12.318    7.327
2 1  -18.657  -11.798   10.492
3 1  -21.327  -15.149    5.210
4 1  -19.395  -17.303    7.581
5 1  -16.249  -15.893    9.224
6 1  -13.828  -18.627    7.839
7 1  -14.880  -18.391    4.335
8 1  -10.323  -18.163    8.362
9 1   -9.202  -19.655    5.439
10 1  -11.383  -18.279    2.009
11 1   -5.703  -19.701    5.140
12 1   -5.662  -20.054    1.386
13 1   -7.959  -16.656    0.790
14 1   -2.886  -20.282   -0.533
15 1   -4.933  -18.949   -3.953
16 1   -6.385  -14.704   -2.941
17 1   -3.567  -18.727   -7.610
18 1   -6.282  -15.920   -8.660
19 1   -4.529  -13.147   -5.647
20 1   -6.901  -14.904  -11.705
21 1   -8.560  -11.746  -10.633
22 1   -5.450   -9.810   -8.234
23 1  -10.202   -9.454  -13.523
24 1   -9.745   -6.103  -11.763
25 1   -5.878   -6.761  -10.720
26 1  -10.454   -3.214  -13.479
27 1   -8.202   -1.067  -12.191
28 1   -4.608   -3.195  -13.227
29 1   -8.253    2.540  -13.357
30 1   -4.257    3.197  -13.343
31 1   -3.061   -0.670  -15.363
32 1    5.626   -5.653  -13.959
33 1    1.076   -4.316  -13.588
34 1    7.069   -5.593  -10.826
35 1    4.011   -3.750   -8.620
36 1    1.169   -6.135  -10.428
37 1    4.141   -3.653   -5.164
38 1    0.669   -2.579   -4.743
39 1   -1.669   -5.379   -6.933
40 1   -0.757   -1.798   -1.822
41 1   -4.240   -2.421   -2.962
42 1   -3.342   -6.285   -3.747
43 1   -7.005   -2.237   -1.075
44 1   -9.062   -4.224   -3.747
45 1   -7.036   -8.244   -3.211
46 1  -12.688   -4.282   -3.721
47 1  -12.794   -8.106   -5.696
48 1  -10.325  -10.171   -3.161
49 1  -15.862   -9.844   -6.844
50 1  -14.256  -13.721   -6.955
51 1  -11.935  -14.332   -3.061
52 1  -16.265  -16.478   -7.800
53 1  -14.184  -19.119   -6.808
54 1  -14.433  -17.813   -2.926
55 1  -14.725  -22.759   -7.756
56 1  -13.222  -24.465   -4.045
57 1  -15.058  -21.392   -0.580
58 1  -13.799  -27.612   -3.143
59 1  -13.263  -27.548    0.596
60 1  -16.087  -24.765    0.896
61 1  -14.001  -30.178    2.357
62 1  -13.386  -28.503    5.545
63 1  -15.777  -24.808    5.304
ITEM: TIMESTEP
2
ITEM: NUMBER OF ATOMS
63
ITEM: BOX BOUNDS pp pp pp
-42.406803131103516 43.10719680786133
-36.137901306152344 49.3760986328125
-40.47809982299805 45.0359001159668
ITEM: ATOMS id type xu yu zu
1 1  -41.224  -34.386  -38.236
2 1  -42.407  -33.804  -34.514
3 1   42.174  -36.138  -40.478
4 1  -41.099  -35.726   41.827
5 1  -41.417  -32.540   40.302
6 1  -40.626  -33.121   36.265
7 1  -40.494  -29.045   35.459
8 1  -37.803  -34.768   35.094
9 1  -37.982  -32.984   31.647
10 1  -37.472  -28.279   32.701
11 1  -35.968  -34.028   28.923
12 1  -35.881  -30.302   27.014
13 1  -34.780  -28.371   30.309
14 1  -34.212  -30.379   24.347
15 1  -33.446  -26.271   24.499
16 1  -31.596  -25.605   28.785
17 1  -31.279  -24.356   21.659
18 1  -30.077  -21.791   23.859
19 1  -28.833  -24.392   26.782
20 1  -27.896  -18.987   22.503
21 1  -26.489  -18.340   26.367
22 1  -25.448  -22.287   28.235
23 1  -24.417  -15.616   26.936
24 1  -22.899  -16.990   30.107
25 1  -22.083  -20.893   27.993
26 1  -19.672  -15.185   31.213
27 1  -17.857  -18.252   32.282
28 1  -17.957  -21.142   28.867
29 1  -14.715  -18.092   33.601
30 1  -13.796  -21.472   33.117
31 1  -14.525  -21.619   29.315
32 1  -16.135  -29.626   21.953
33 1  -15.785  -25.319   24.407
34 1  -17.670  -32.161   23.990
35 1  -17.080  -30.344   27.695
36 1  -18.469  -26.704   26.620
37 1  -18.164  -31.872   30.691
38 1  -18.385  -29.036   32.855
39 1  -20.513  -26.114   30.319
40 1  -20.265  -29.602   35.717
41 1  -21.549  -26.250   35.950
42 1  -23.773  -26.549   32.165
43 1  -23.575  -25.532   38.473
44 1  -25.150  -22.421   36.399
45 1  -27.318  -24.211   32.654
46 1  -27.923  -20.609   38.236
47 1  -29.389  -19.238   34.544
48 1  -30.768  -22.716   33.587
49 1  -31.754  -16.836   34.775
50 1  -34.077  -18.213   31.493
51 1  -34.459  -22.710   31.799
52 1  -37.267  -16.694   30.513
53 1  -38.381  -19.517   28.619
54 1  -38.084  -22.379   32.340
55 1  -41.558  -19.346   27.162
56 1  -42.042  -23.127   27.137
57 1  -41.467  -25.144   31.630
58 1   40.749  -23.921   25.840
59 1   41.052  -27.442   27.624
60 1   40.686  -26.182   31.306
61 1   39.308  -30.301   26.769
62 1   39.875  -31.701   30.225
63 1   37.573  -28.924   33.411
ITEM: TIMESTEP
3
ITEM: NUMBER OF ATOMS
63
ITEM: BOX BOUNDS pp pp pp
-34.00199890136719 51.512001037597656
-14.096399307250977 71.4176025390625
-42.631996154785156 42.88200378417969
ITEM: ATOMS id type xu yu zu
1 1   -0.682  -11.203  -28.059
2 1   -1.047  -14.096  -25.500
3 1    1.593  -11.855  -31.209
4 1   -0.508   -8.985  -32.966
5 1   -2.176   -9.318  -36.512
6 1   -2.793   -5.919  -36.938
7 1   -2.955   -5.641  -40.842
8 1   -5.187   -4.722  -35.245
9 1   -5.930   -1.832  -37.480
10 1   -6.380   -3.672  -42.030
11 1   -9.140    0.349  -36.682
12 1   -9.088    1.709  -40.155
13 1   -9.609   -2.557  -42.142
14 1  -11.577    3.755  -40.716
15 1  -12.132    2.375   40.849
16 1  -13.069   -2.330   40.899
17 1  -14.724    4.367   38.913
18 1  -16.424    1.473   36.575
19 1  -16.490   -1.598   39.967
20 1  -19.266    2.434   34.090
21 1  -21.295   -1.438   33.851
22 1  -21.183   -3.103   38.262
23 1  -24.906   -1.666   32.049
24 1  -25.132   -5.746   33.406
25 1  -24.354   -4.302   37.145
26 1  -28.091   -6.996   32.646
27 1  -28.180   -8.862   36.220
28 1  -27.630   -5.650   39.472
29 1  -30.857  -11.352   36.873
30 1  -34.002   -8.715   37.284
31 1  -31.267   -6.338   39.094
32 1  -29.455   -0.444  -37.662
33 1  -29.673   -3.908  -41.227
34 1  -27.056   -1.078  -35.562
35 1  -26.275   -4.942  -36.754
36 1  -26.065   -3.446  -40.858
37 1  -23.560   -6.185  -35.621
38 1  -23.394   -8.417  -38.686
39 1  -23.070   -5.815   42.780
40 1  -20.470  -11.048  -38.537
41 1  -19.845  -11.259   42.913
42 1  -19.644   -7.220   42.034
43 1  -17.699  -13.447   41.482
44 1  -16.589  -11.645   38.588
45 1  -15.814   -7.468   40.009
46 1  -14.453  -12.815   36.519
47 1  -13.030   -9.318   35.151
48 1  -12.393   -7.752   38.822
49 1  -10.380   -9.384   33.070
50 1   -9.293   -6.012   33.606
51 1   -8.791   -5.754   38.370
52 1   -6.483   -4.092   31.341
53 1   -5.722   -1.607   34.415
54 1   -5.401   -4.314   37.423
55 1   -3.533    0.866   33.980
56 1   -3.202    1.801   37.668
57 1   -3.025   -2.061   40.463
58 1   -1.115    3.867   38.848
59 1   -1.131    2.380   41.940
60 1    0.508   -0.992   40.812
61 1    0.565    4.059  -41.042
62 1    1.336    0.765  -39.526
63 1    4.035   -2.011  -42.632
ITEM: TIMESTEP
4
ITEM: NUMBER OF ATOMS
63
ITEM: BOX BOUNDS pp pp pp
-26.745601654052734 58.76839828491211
-42.9484977722168 42.56550216674805
-42.2328987121582 43.28110122680664
ITEM: ATOMS id type xu yu zu
1 1  -26.593   32.177  -35.317
2 1  -26.746   29.452  -38.256
3 1  -24.331   31.067  -32.608
4 1  -21.395   32.194  -34.461
5 1  -18.349   31.277  -32.893
6 1  -15.717   33.883  -35.172
7 1  -17.082   37.392  -33.560
8 1  -12.391   33.360  -35.545
9 1  -11.374   36.841  -36.527
10 1  -13.458   39.084  -33.087
11 1   -8.331   37.801  -36.881
12 1   -8.815   41.935  -36.321
13 1  -10.149   40.886  -33.134
14 1   -6.184  -41.188  -36.788
15 1   -7.033  -39.432  -33.032
16 1   -7.743  -42.948  -30.263
17 1   -4.372  -37.250  -31.829
18 1   -5.627  -37.482  -28.288
19 1   -4.808  -41.870  -28.192
20 1   -4.379  -35.620  -25.490
21 1   -4.692  -38.146  -22.638
22 1   -2.661  -42.105  -23.984
23 1   -3.986  -37.107  -19.211
24 1   -3.408  -40.923  -18.084
25 1   -0.598  -42.040  -21.008
26 1   -2.157  -41.229  -14.409
27 1   -2.220   40.827  -14.589
28 1    1.145   40.715  -18.210
29 1   -1.549   38.608  -12.088
30 1   -0.214   35.357  -14.336
31 1    2.288   37.797  -16.099
32 1   10.428   38.556  -23.421
33 1    7.109   37.673  -20.318
34 1    9.512   37.223  -26.300
35 1    6.102   35.406  -24.808
36 1    4.644   39.077  -22.792
37 1    3.893   33.595  -26.596
38 1    1.082   33.432  -24.214
39 1    0.660   38.267  -23.344
40 1   -1.659   32.091  -24.624
41 1   -3.405   34.620  -21.781
42 1   -2.831   37.665  -24.222
43 1   -7.077   33.896  -20.737
44 1   -8.050   37.937  -20.459
45 1   -6.934   39.668  -24.270
46 1  -11.391   38.699  -19.879
47 1  -11.636   41.905  -21.765
48 1  -10.376   40.559  -25.234
49 1  -14.444  -41.374  -21.708
50 1  -13.633  -39.517  -25.144
51 1  -12.631  -42.762  -28.264
52 1  -16.233  -37.113  -26.600
53 1  -14.324  -37.867  -30.101
54 1  -15.632  -41.863  -30.177
55 1  -14.620  -36.014  -33.066
56 1  -13.422  -38.548  -35.113
57 1  -15.972  -42.623  -34.515
58 1  -12.823  -37.926  -38.612
59 1  -14.166  -41.853  -39.287
60 1  -17.606  -41.420  -37.604
61 1  -14.119   42.672  -42.233
62 1  -16.788   40.225  -41.989
63 1  -20.655   41.917  -39.611
ITEM: TIMESTEP
5
ITEM: NUMBER OF ATOMS
63
ITEM: BOX BOUNDS pp pp pp
-43.52009582519531 41.99390411376953
-41.720001220703125 43.79399871826172
-42.52659606933594 42.987403869628906
ITEM: ATOMS id type xu yu zu
1 1   -9.113  -31.667  -17.710
2 1  -11.941  -32.634  -20.151
3 1   -7.197  -34.363  -16.866
4 1   -8.998  -36.990  -18.881
5 1   -6.883  -39.983  -19.871
6 1   -9.713  -40.857  -23.017
7 1  -12.675  -41.493  -21.035
8 1   -9.355   42.106  -26.069
9 1  -10.167  -41.275  -28.657
10 1   -8.001   42.696  -32.649
11 1   -9.636  -38.088  -28.314
12 1  -11.574  -37.468  -31.958
13 1   -8.946  -39.650  -34.213
14 1  -14.705  -38.388  -32.505
15 1  -14.664  -37.086  -36.333
16 1  -10.937  -38.356  -37.999
17 1  -16.703  -37.964  -38.440
18 1  -14.282  -37.970  -41.056
19 1  -12.497  -41.720  -39.377
20 1  -14.905  -37.834   41.009
21 1  -15.480  -41.602   40.590
22 1  -11.472   41.718   42.379
23 1  -15.998   42.699   37.839
24 1  -15.855   38.520   39.130
25 1  -11.802   38.612   40.309
26 1  -16.385   35.839   37.356
27 1  -13.177   35.768   35.945
28 1  -10.153   34.791   39.491
29 1  -12.392   33.997   32.448
30 1   -8.366   33.590   33.492
31 1   -9.634   31.776   37.314
32 1  -43.520   13.526   36.054
33 1   40.310   18.149   37.068
34 1  -41.910   12.485   38.846
35 1   42.380   15.533   41.453
36 1   39.051   15.684   39.360
37 1  -41.165   18.780   41.577
38 1  -42.421   19.781  -39.968
39 1  -40.828   24.409  -40.214
40 1   39.894   19.680  -39.233
41 1   40.565   21.322  -35.814
42 1   42.165   24.378  -37.537
43 1   37.473   21.633  -33.474
44 1   35.067   22.865  -36.417
45 1   38.460   24.718  -39.521
46 1   32.860   20.842  -38.222
47 1   32.239   23.266  -41.441
48 1   36.168   23.491  -42.527
49 1   29.503   22.639   41.349
50 1   32.074   23.926   38.523
51 1   34.472   19.654   37.736
52 1   30.891   25.513   35.219
53 1   33.925   24.820   33.555
54 1   33.343   20.873   34.517
55 1   34.092   25.183   30.425
56 1   37.015   28.208   30.759
57 1   41.399   26.444   30.740
58 1   36.797   31.632   29.081
59 1   40.731   32.723   30.312
60 1   42.709   29.401   29.100
61 1   42.277   35.932   28.705
62 1  -39.018   34.880   29.528
63 1  -38.730   30.493   28.469
ITEM: TIMESTEP
6
ITEM: NUMBER OF ATOMS
63
ITEM: BOX BOUNDS pp pp pp
-42.58449935913086 42.929500579833984
-19.88640022277832 65.62760162353516
-21.0 64.51399993896484
ITEM: ATOMS id type xu yu zu
1 1  -22.117   -5.705   -4.781
2 1  -20.590   -2.089   -6.717
3 1  -22.547   -8.680   -6.910
4 1  -24.833  -10.262   -4.353
5 1  -25.964  -13.307   -4.821
6 1  -29.240  -12.865   -2.023
7 1  -31.832  -15.091   -4.339
8 1  -30.335   -9.316   -0.777
9 1  -31.732   -8.116   -3.821
10 1  -34.628  -11.642   -4.441
11 1  -33.663   -4.588   -3.504
12 1  -36.198   -5.812   -5.929
13 1  -36.905   -9.111   -3.299
14 1  -39.298   -3.530   -6.880
15 1  -41.206   -6.490   -7.755
16 1  -41.152   -9.246   -3.436
17 1   41.368   -6.349   -9.119
18 1   40.254  -10.096   -7.875
19 1   40.742   -9.052   -3.524
20 1   37.371  -11.049   -8.442
21 1   36.985  -13.721   -5.764
22 1   37.615  -11.358   -2.083
23 1   33.742  -15.929   -5.156
24 1   33.255  -16.121   -1.178
25 1   34.085  -11.939   -1.066
26 1   30.028  -17.432    0.293
27 1   31.128  -16.325    3.872
28 1   33.205  -11.695    3.304
29 1   28.844  -16.563    6.864
30 1   29.689  -13.360    8.680
31 1   27.848  -14.235   11.948
32 1   32.216   -1.221   -0.694
33 1   34.668   -2.104   -5.028
34 1   33.572    1.185    1.131
35 1   35.028   -1.612    3.828
36 1   31.862   -1.999    5.692
37 1   37.973   -1.659    5.104
38 1   37.598   -5.165    6.503
39 1   36.086   -7.689    2.577
40 1   40.655   -6.687    8.074
41 1   40.084   -9.895    6.824
42 1   39.668   -8.653    2.633
43 1   42.510  -12.985    7.814
44 1   41.352  -14.865    4.572
45 1   41.647  -12.089    1.298
46 1   42.912  -18.207    3.760
47 1   42.155  -17.734   -0.257
48 1  -41.199  -14.081   -0.132
49 1  -42.155  -19.886   -2.254
50 1  -42.584  -17.531   -5.218
51 1  -39.751  -14.360   -4.072
52 1  -42.303  -18.729   -8.308
53 1  -40.856  -15.911   -9.476
54 1  -38.148  -15.907   -6.883
55 1  -40.142  -15.687  -13.423
56 1  -36.152  -14.942  -13.576
57 1  -34.105  -16.169   -9.151
58 1  -34.278  -16.638  -16.406
59 1  -30.854  -16.338  -14.485
60 1  -32.141  -18.735  -10.753
61 1  -27.434  -17.387  -16.373
62 1  -28.761  -15.629  -20.150
63 1  -25.634  -12.411  -21.000
ITEM: TIMESTEP
7
ITEM: NUMBER OF ATOMS
63
ITEM: BOX BOUNDS pp pp pp
-42.11070251464844 43.403297424316406
-42.221099853515625 43.29290008544922
-35.917301177978516 49.59669876098633
ITEM: ATOMS id type xu yu zu
1 1  -39.700  -28.135  -30.393
2 1  -42.111  -25.629  -31.427
3 1  -39.780  -29.098  -26.506
4 1  -38.113  -25.832  -24.942
5 1  -37.481  -25.344  -21.646
6 1  -39.083  -28.794  -20.561
7 1  -38.627  -30.415  -24.217
8 1  -38.637  -30.672  -17.875
9 1  -40.200  -33.875  -19.775
10 1  -38.337  -34.395  -24.029
11 1  -40.215  -37.246  -17.697
12 1  -39.267  -39.750  -20.478
13 1  -36.333  -37.245  -22.720
14 1  -38.550   42.229  -19.792
15 1  -37.597   41.577  -23.805
16 1  -34.496  -41.199  -24.515
17 1  -36.761   37.903  -25.002
18 1  -35.737   39.336  -28.040
19 1  -32.683   41.265  -25.701
20 1  -34.474   37.529  -31.071
21 1  -31.677   40.327  -32.284
22 1  -28.967   40.694  -28.199
23 1  -29.388   39.953  -35.234
24 1  -26.320   41.868  -33.672
25 1  -26.041   39.296  -29.750
26 1  -23.080   42.533  -35.917
27 1  -20.426   42.069  -32.560
28 1  -21.875   38.523  -29.718
29 1  -16.892   42.298  -33.419
30 1  -15.562   41.520  -29.657
31 1  -18.185   38.399  -29.465
32 1  -20.204   31.092  -22.944
33 1  -20.039   33.966  -26.041
34 1  -21.709   32.527  -19.797
35 1  -20.080   36.228  -20.360
36 1  -22.320   36.229  -24.031
37 1  -20.994   38.721  -18.074
38 1  -21.086   41.788  -20.722
39 1  -24.093   40.052  -23.936
40 1  -21.546  -40.074  -19.901
41 1  -22.518  -39.339  -23.546
42 1  -25.798  -42.221  -23.834
43 1  -23.232  -35.806  -24.558
44 1  -25.242  -36.788  -27.532
45 1  -28.720  -39.796  -25.611
46 1  -26.703  -33.919  -29.791
47 1  -29.572  -36.160  -30.952
48 1  -30.882  -37.136  -27.221
49 1  -31.993  -34.550  -33.488
50 1  -34.608  -37.438  -32.757
51 1  -35.414  -36.285  -28.482
52 1  -38.027  -38.151  -34.773
53 1  -40.147  -39.232  -31.538
54 1  -38.728  -36.032  -29.622
55 1   41.619  -39.858  -31.546
56 1   41.236  -37.982  -28.341
57 1  -41.637  -33.601  -27.431
58 1   38.060  -37.894  -26.596
59 1   38.714  -34.277  -24.811
60 1   40.490  -32.785  -28.530
61 1   36.134  -31.973  -23.341
62 1   38.013  -28.640  -24.984
63 1   40.308  -26.143  -21.842
ITEM: TIMESTEP
8
ITEM: NUMBER OF ATOMS
63
ITEM: BOX BOUNDS pp pp pp
-33.77750015258789 51.73649978637695
3.0810999870300293 88.59510040283203
-39.60770034790039 45.90629959106445
ITEM: ATOMS id type xu yu zu
1 1  -19.147    3.081   -8.081
2 1  -18.263    4.340   -4.399
3 1  -17.218    4.268  -11.119
4 1  -19.295    7.649  -11.303
5 1  -17.767   10.430  -12.505
6 1  -16.014    8.442  -15.969
7 1  -19.040    8.937  -18.290
8 1  -13.033    9.556  -17.445
9 1  -13.940    7.864  -20.998
10 1  -17.466   10.336  -21.944
11 1  -11.494    7.518  -23.811
12 1  -13.823   10.125  -26.178
13 1  -17.536    8.086  -25.149
14 1  -13.126   10.618  -29.532
15 1  -12.328   14.868  -28.923
16 1  -16.432   16.638  -27.094
17 1  -11.519   16.788  -31.790
18 1  -15.320   17.638  -31.948
19 1  -15.404   19.930  -27.971
20 1  -16.339   19.380  -34.606
21 1  -19.917   17.202  -34.793
22 1  -21.495   17.393  -29.826
23 1  -22.696   17.441  -37.646
24 1  -25.761   16.682  -35.156
25 1  -24.123   18.761  -32.062
26 1  -29.178   17.302  -36.161
27 1  -29.362   13.706  -37.993
28 1  -27.542   11.147  -35.070
29 1  -32.164   12.472  -39.608
30 1  -33.778   10.441  -36.393
31 1  -29.995    8.376  -35.379
32 1   25.368   14.293   -1.935
33 1   25.389   11.547    1.672
34 1   22.924   13.397   -3.725
35 1   21.899   10.887   -1.539
36 1   22.167   13.264    1.787
37 1   18.569    9.068   -2.190
38 1   17.630    8.392    1.860
39 1   18.728   12.255    4.158
40 1   14.720    7.061    3.165
41 1   13.929   10.187    5.882
42 1   17.503    9.977    7.300
43 1   11.022   10.050    8.289
44 1   10.205   13.756    8.753
45 1   10.182   15.109    4.144
46 1    7.002   14.439   10.433
47 1    7.290   18.088    9.112
48 1    6.642   17.153    5.263
49 1    5.117   20.795   10.632
50 1    8.342   23.381   11.529
51 1    9.737   23.181    7.630
52 1    7.396   26.629   12.531
53 1    8.030   27.826    8.830
54 1   11.651   26.463    9.267
55 1    7.448   31.147    7.528
56 1    6.684   29.612    4.215
57 1    4.640   25.418    4.501
58 1    5.373   31.715    1.808
59 1    2.889   28.836    0.861
60 1    5.508   25.464    0.778
61 1    0.379   29.443   -2.154
62 1   -3.023   27.767   -0.891
63 1   -4.717   24.858   -4.367
ITEM: TIMESTEP
9
ITEM: NUMBER OF ATOMS
63
ITEM: BOX BOUNDS pp pp pp
-41.69459915161133 43.819400787353516
-42.368797302246094 43.14520263671875
-42.01969909667969 43.494300842285156
ITEM: ATOMS id type xu yu zu
1 1    9.364  -28.291   11.784
2 1    6.871  -25.472   10.945
3 1   10.830  -27.678   15.346
4 1   14.120  -29.395   14.829
5 1   17.345  -27.638   15.732
6 1   19.606  -29.517   12.593
7 1   22.777  -30.483   14.333
8 1   18.441  -32.429   10.598
9 1   21.765  -33.478    8.839
10 1   25.176  -32.929   11.937
11 1   22.174  -36.481    6.392
12 1   22.793  -39.064    9.241
13 1   24.743  -36.486   11.324
14 1   24.820  -41.881    8.543
15 1   27.560  -39.831    6.769
16 1   28.846  -36.776    9.874
17 1   30.468  -41.583    5.334
18 1   32.665  -38.273    5.493
19 1   32.386  -38.059    9.909
20 1   35.982  -38.147    4.292
21 1   35.550  -41.513    1.862
22 1   35.781  -39.611   -2.734
23 1   37.922   41.561    2.252
24 1   37.978   40.912   -1.489
25 1   39.133  -40.638   -2.732
26 1   39.857   38.298   -2.538
27 1   40.531   39.715   -6.113
28 1   37.638  -42.369   -6.726
29 1  -41.695   40.481   -7.035
30 1   43.119   42.099  -10.827
31 1  -40.918   39.278  -12.832
32 1  -25.597   18.272  -38.617
33 1  -21.138   18.629  -36.740
34 1  -25.124   18.972  -41.895
35 1  -20.960   18.633  -42.020
36 1  -21.038   15.819  -39.202
37 1  -18.773   17.583   40.484
38 1  -15.938   16.680   42.835
39 1  -18.023   13.039  -40.008
40 1  -12.990   15.539   41.625
41 1  -11.164   15.043  -40.298
42 1  -14.377   12.580  -39.326
43 1   -7.662   13.684  -40.140
44 1   -8.396   11.823  -37.284
45 1  -11.741    8.900  -38.785
46 1   -5.963   10.641  -34.792
47 1   -7.339    7.542  -33.312
48 1  -10.527    8.113  -35.144
49 1   -7.223    7.295  -29.729
50 1   -9.582   10.564  -29.378
51 1  -13.255    9.213  -32.158
52 1  -10.712   11.534  -25.878
53 1  -14.597   10.962  -26.781
54 1  -14.393   12.377  -30.734
55 1  -17.289   12.111  -24.397
56 1  -17.435    9.373  -21.490
57 1  -14.030   11.018  -19.159
58 1  -20.573    9.579  -19.107
59 1  -18.756   10.872  -16.538
60 1  -16.683   13.417  -18.681
61 1  -20.774   12.407  -13.866
62 1  -23.566    9.807  -14.125
63 1  -21.464    5.700  -13.356
ITEM: TIMESTEP
10
ITEM: NUMBER OF ATOMS
63
ITEM: BOX BOUNDS pp pp pp
-13.96880054473877 71.54519653320312
-42.88909912109375 42.624900817871094
-42.39999771118164 43.1140022277832
ITEM: ATOMS id type xu yu zu
1 1   -6.235   34.147  -14.905
2 1   -7.563   37.151  -17.306
3 1   -3.741   32.032  -16.419
4 1   -5.227   33.221  -20.138
5 1   -4.965   30.884  -23.354
6 1   -5.879   33.571  -25.887
7 1   -4.699   37.046  -23.128
8 1   -4.594   33.732  -28.925
9 1   -5.638   37.147  -29.319
10 1   -2.795   39.419  -25.796
11 1   -5.328   38.583  -32.369
12 1   -5.111   42.283  -30.750
13 1   -1.673   41.198  -28.706
14 1   -4.573  -40.229  -32.603
15 1   -3.019  -38.474  -29.483
16 1    0.944  -40.975  -28.962
17 1   -2.337  -35.035  -30.004
18 1    0.876  -35.382  -27.359
19 1    2.879  -38.006  -29.746
20 1    2.733  -32.154  -26.878
21 1    6.546  -34.451  -26.143
22 1    7.188  -36.633  -29.951
23 1    9.467  -32.927  -25.440
24 1   12.011  -36.170  -26.620
25 1   10.654  -35.343  -30.152
26 1   15.843  -35.727  -26.349
27 1   16.866  -37.822  -29.915
28 1   14.094  -35.648  -32.788
29 1   19.719  -38.315  -31.067
30 1   18.891  -38.337  -34.989
31 1   16.644  -34.414  -35.057
32 1    9.367  -31.897  -41.922
33 1   12.008  -32.599  -38.481
34 1    7.172  -34.583  -42.400
35 1    9.563  -37.488  -40.876
36 1   10.227  -35.645  -37.345
37 1    8.524  -40.989  -41.016
38 1   10.688  -42.128  -38.173
39 1    9.624  -39.110  -34.995
40 1   10.411   40.225  -37.245
41 1   10.929   41.055  -33.676
42 1    7.552  -41.596  -33.301
43 1   11.093   38.627  -30.833
44 1   11.104   41.229  -27.838
45 1    7.046  -42.088  -28.834
46 1   10.612   39.710  -24.858
47 1    8.544  -42.560  -23.320
48 1    5.527   41.859  -25.809
49 1    6.849  -42.329  -19.524
50 1    4.014  -39.836  -20.832
51 1    1.862   42.928  -23.965
52 1    1.818  -37.910  -18.701
53 1   -1.350  -37.728  -21.563
54 1   -1.397  -41.867  -22.043
55 1   -4.038  -35.999  -20.898
56 1   -6.272  -38.168  -23.274
57 1   -5.711   42.472  -22.168
58 1   -9.485  -37.441  -23.210
59 1  -10.395  -41.007  -24.637
60 1   -9.431  -42.889  -21.789
61 1  -13.969  -41.977  -25.401
62 1  -13.461   39.767  -24.860
63 1  -11.484   38.958  -21.129
ITEM: TIMESTEP
11
ITEM: NUMBER OF ATOMS
63
ITEM: BOX BOUNDS pp pp pp
-42.56919860839844 42.944801330566406
-42.46699905395508 43.047000885009766
-42.212501525878906 43.30149841308594
ITEM: ATOMS id type xu yu zu
1 1  -37.597  -18.240   -7.944
2 1  -34.370  -19.512  -10.392
3 1  -41.073  -18.347   -9.112
4 1  -40.844  -15.913  -12.189
5 1   41.718  -14.468  -13.902
6 1  -41.999  -14.437  -17.290
7 1  -39.500  -18.026  -17.044
8 1   41.409  -14.339  -20.152
9 1  -41.197  -15.888  -22.999
10 1  -39.748  -19.490  -21.252
11 1  -41.955  -16.234  -26.285
12 1  -39.736  -19.197  -27.162
13 1  -40.682  -21.570  -24.147
14 1  -39.553  -20.571  -30.393
15 1  -37.507  -23.506  -28.535
16 1  -40.310  -25.506  -25.759
17 1  -33.892  -23.382  -27.462
18 1  -33.578  -27.395  -27.265
19 1  -37.981  -27.771  -27.485
20 1  -31.467  -29.055  -30.057
21 1  -33.781  -32.461  -28.886
22 1  -38.360  -31.216  -29.726
23 1  -33.228  -35.515  -30.036
24 1  -36.658  -37.155  -29.036
25 1  -38.666  -34.293  -31.570
26 1  -37.547  -40.758  -29.925
27 1  -41.694  -39.902  -30.265
28 1  -41.844  -36.297  -33.528
29 1   41.782  -42.467  -30.922
30 1   39.144  -41.282  -28.562
31 1   41.712  -40.889  -25.431
32 1   39.218  -30.459  -42.213
33 1   41.535  -33.779  -39.736
34 1   37.858  -28.198  -40.062
35 1   37.120  -30.811  -36.752
36 1   41.125  -31.767  -36.428
37 1   35.535  -29.012  -34.007
38 1   36.440  -31.439  -31.699
39 1   41.403  -31.939  -31.787
40 1   35.319  -31.616  -28.229
41 1   38.492  -34.191  -27.430
42 1   41.759  -31.609  -28.121
43 1   38.736  -36.019  -24.092
44 1   40.153  -32.834  -21.507
45 1  -42.569  -29.943  -24.361
46 1   41.194  -33.306  -18.491
47 1  -40.606  -32.036  -19.260
48 1  -41.900  -28.939  -20.872
49 1  -37.931  -31.572  -16.897
50 1  -35.649  -29.693  -18.973
51 1  -38.726  -26.108  -20.720
52 1  -32.882  -27.874  -17.088
53 1  -32.238  -25.424  -19.834
54 1  -35.981  -24.060  -19.419
55 1  -29.384  -23.116  -19.762
56 1  -31.145  -20.365  -22.058
57 1  -34.920  -19.629  -19.216
58 1  -29.427  -16.840  -22.732
59 1  -29.724  -15.381  -19.368
60 1  -33.766  -16.369  -18.204
61 1  -28.799  -11.781  -18.563
62 1  -28.632  -12.057  -14.882
63 1  -27.276  -15.986  -13.413
ITEM: TIMESTEP
12
ITEM: NUMBER OF ATOMS
63
ITEM: BOX BOUNDS pp pp pp
-24.25749969482422 61.256500244140625
-0.899724006652832 84.61427307128906
-34.86180114746094 50.652198791503906
ITEM: ATOMS id type xu yu zu
1 1   31.825   29.165  -32.236
2 1   33.552   27.648  -34.862
3 1   34.363   31.055  -30.268
4 1   33.061   30.028  -26.641
5 1   34.727   30.445  -23.755
6 1   34.011   26.996  -22.375
7 1   30.492   27.058  -24.562
8 1   36.307   24.036  -22.578
9 1   33.491   21.485  -23.040
10 1   30.728   23.276  -26.147
11 1   34.138   18.572  -23.936
12 1   30.395   17.732  -24.353
13 1   29.609   20.089  -27.387
14 1   28.992   14.409  -24.745
15 1   29.637   13.005  -21.637
16 1   25.778   12.605  -19.796
17 1   31.373   10.174  -21.478
18 1   28.773    8.592  -19.654
19 1   28.101   11.662  -17.349
20 1   29.244    5.909  -17.915
21 1   25.615    4.493  -18.101
22 1   23.171    8.204  -17.001
23 1   24.648    1.575  -15.713
24 1   21.337    2.832  -14.103
25 1   23.202    6.826  -13.677
26 1   19.677    1.274  -11.624
27 1   16.332    2.581  -12.784
28 1   15.014   -0.676  -16.347
29 1   13.887    2.724  -10.654
30 1   10.962    1.064  -12.918
31 1   12.524    2.066  -16.271
32 1    8.117   20.733    1.363
33 1   11.410   17.506    1.978
34 1    7.347   20.956   -2.152
35 1    5.778   16.891   -2.661
36 1    9.063   15.392    0.041
37 1    5.213   15.783   -5.905
38 1    3.915   11.823   -4.832
39 1   -0.531   13.202   -3.376
40 1    3.556    9.593   -7.529
41 1    0.414    7.288   -6.100
42 1   -1.870   10.493   -5.443
43 1   -0.865    4.803   -7.999
44 1   -3.831    6.557   -8.952
45 1   -5.420    8.117   -4.442
46 1   -6.509    5.510  -10.906
47 1   -7.921    9.473  -10.632
48 1   -5.076   11.105  -12.986
49 1  -10.928   10.095  -11.542
50 1  -12.430   11.170   -8.044
51 1  -15.417   14.842   -9.402
52 1  -13.927    8.601   -5.378
53 1  -16.602   11.225   -3.504
54 1  -17.268   12.965   -6.662
55 1  -19.040    9.876   -1.277
56 1  -16.890    6.453    0.043
57 1  -15.169    4.413   -3.789
58 1  -18.438    4.177    1.941
59 1  -19.477    1.770   -0.996
60 1  -15.250    1.068   -2.255
61 1  -21.543   -0.900   -0.590
62 1  -24.257    0.055   -3.797
63 1  -21.551    2.382   -6.743
ITEM: TIMESTEP
13
ITEM: NUMBER OF ATOMS
63
ITEM: BOX BOUNDS pp pp pp
-20.763999938964844 64.75
-34.941898345947266 50.57210159301758
8.462599754333496 93.97660064697266
ITEM: ATOMS id type xu yu zu
1 1  -17.231  -28.154   15.669
2 1  -17.371  -29.537   11.753
3 1  -17.566  -30.349   17.974
4 1  -16.349  -27.831   20.299
5 1  -18.347  -25.159   21.104
6 1  -15.629  -22.763   23.218
7 1  -13.268  -25.730   25.054
8 1  -13.836  -20.661   21.469
9 1  -10.984  -20.406   23.991
10 1   -9.381  -24.700   24.595
11 1   -8.527  -17.912   23.404
12 1   -6.050  -19.690   25.641
13 1   -6.564  -22.990   23.334
14 1   -2.701  -18.189   25.751
15 1   -1.113  -21.159   27.035
16 1   -2.672  -24.234   23.790
17 1    2.358  -21.026   27.582
18 1    2.588  -24.689   26.612
19 1    1.025  -24.081   22.987
20 1    5.613  -26.453   26.685
21 1    4.959  -28.951   24.144
22 1    3.271  -26.986   20.446
23 1    7.356  -31.609   23.112
24 1    5.722  -31.887   19.284
25 1    6.337  -27.621   18.478
26 1    7.324  -34.525   16.841
27 1    6.340  -32.454   13.814
28 1    7.283  -27.679   14.196
29 1    6.828  -33.747   10.753
30 1    5.948  -30.876    8.463
31 1    8.019  -28.470   10.739