ITEM: TIMESTEP
0
ITEM: NUMBER OF ATOMS
63
ITEM: BOX BOUNDS pp pp pp
-26.823101043701172 58.69089889526367
-42.19810104370117 43.31589889526367
-43.21529769897461 42.298702239990234
ITEM: ATOMS id type xu yu zu
1 1   -5.253   40.183   10.377
2 1   -6.200  -41.253    8.674
3 1   -1.701   38.905   10.445
4 1   -0.200   41.980   11.954
5 1   -2.728  -39.861   10.493
6 1    3.319   42.402   11.402
7 1    3.077  -39.575   11.718
8 1    1.246  -38.951    8.140
9 1    6.302  -37.308   11.488
10 1    8.063  -39.179    8.560
11 1    4.821  -39.910    5.854
12 1   10.855  -37.853    6.824
13 1   11.457  -41.038    4.551
14 1    7.658  -41.814    4.421
15 1   13.305  -40.718    1.543
16 1   12.678   41.034   -0.149
17 1   14.785   38.830    0.916
18 1   14.644   36.956   -2.111
19 1   16.906   33.648   -1.186
20 1   11.689   36.419   -3.385
21 1   12.134   32.527   -4.518
22 1   14.088   30.473   -0.921
23 1    9.566   30.931   -5.615
24 1   10.272   27.402   -3.942
25 1   10.429   29.403   -0.145
26 1    8.285   24.944   -4.120
27 1   10.352   22.520   -1.732
28 1   10.398   24.981    2.766
29 1   13.632   21.495   -2.464
30 1   13.727   18.747   -0.111
31 1   11.092   16.483   -2.231
32 1  -19.018  -23.417  -26.009
33 1  -19.051  -26.745  -29.666
34 1  -16.618  -24.228  -23.747
35 1  -18.210  -27.541  -23.054
36 1  -17.843  -28.861  -26.862
37 1  -17.301  -29.639  -20.751
38 1  -14.481  -31.726  -22.833
39 1  -16.593  -32.993  -27.057
40 1  -12.984  -34.329  -21.347
41 1  -10.876  -35.565  -24.800
42 1  -14.112  -35.439  -27.444
43 1   -9.285  -38.531  -24.878
44 1   -8.641  -38.781  -29.130
45 1  -12.599  -38.279  -30.709
46 1   -6.953  -41.717  -30.767
47 1   -6.397  -40.434  -34.374
48 1  -10.685  -38.926  -34.381
49 1   -5.377  -42.198  -36.725
50 1   -8.196   41.048  -36.180
51 1  -11.985  -41.825  -37.672
52 1   -8.319   37.952  -37.758
53 1  -12.372   37.424  -37.703
54 1  -12.618   40.779  -40.076
55 1  -13.678   35.112  -39.103
56 1  -17.049   36.509  -39.835
57 1  -17.102   41.554  -39.353
58 1  -19.393   35.110  -41.717
59 1  -20.668   38.890  -43.215
60 1  -20.560   40.617  -39.152
61 1  -24.150   39.081   40.406
62 1  -23.162   36.229   37.833
63 1  -26.823   32.960   37.251
ITEM: TIMESTEP
1
ITEM: NUMBER OF ATOMS
63
ITEM: BOX BOUNDS pp pp pp
-11.273099899291992 74.24089813232422
-42.006103515625 43.507896423339844
11.39109992980957 96.90509796142578
ITEM: ATOMS id type xu yu zu
1 1  -11.273  -18.842   27.040
2 1   -9.459  -18.023   30.345
3 1  -10.555  -16.564   23.843
4 1   -6.904  -15.343   24.899
5 1   -5.232  -17.449   29.047
6 1   -4.891  -13.595   22.647
7 1   -1.566  -13.812   25.255
8 1   -2.192  -17.402   26.871
9 1    1.819  -12.968   24.254
10 1    3.945  -15.115   27.184
11 1    1.707  -18.714   27.376
12 1    7.069  -15.651   26.933
13 1    7.751  -17.343   30.035
14 1    4.113  -19.740   30.067
15 1   10.814  -19.169   30.211
16 1    9.390  -23.017   29.344
17 1   11.023  -25.450   30.403
18 1    8.794  -28.416   28.776
19 1    7.820  -26.421   25.019
20 1   10.191  -31.654   28.482
21 1    7.571  -33.033   25.405
22 1    7.924  -29.837   22.299
23 1    7.644  -36.059   23.990
24 1    6.058  -35.000   20.364
25 1    9.058  -32.097   19.213
26 1    4.790  -37.434   17.691
27 1    4.208  -34.775   14.604
28 1    8.635  -32.388   14.448
29 1    3.944  -36.306   11.391
30 1    1.511  -38.816   13.166
31 1    5.057  -42.006   13.055
32 1   18.294  -27.781   13.185
33 1   16.645  -28.452   17.212
34 1   17.961  -24.346   12.435
35 1   14.049  -24.371   12.184
36 1   13.090  -27.454   14.853
37 1   11.984  -21.136   13.092
38 1    8.272  -23.124   13.236
39 1    9.240  -26.880   16.477
40 1    5.190  -21.645   13.555
41 1    3.568  -24.677   14.981
42 1    6.563  -25.172   18.382
43 1   -0.004  -24.594   15.790
44 1    0.763  -27.325   17.961
45 1    3.332  -25.801   21.026
46 1   -1.895  -28.945   19.735
47 1   -0.547  -29.321   22.727
48 1    0.630  -25.202   23.247
49 1   -2.351  -30.778   25.151
50 1   -1.009  -28.584   27.788
51 1   -2.326  -24.503   26.426
52 1   -1.754  -29.393   31.225
53 1   -0.509  -26.583   33.147
54 1   -0.539  -24.123   29.571
55 1   -2.115  -25.526   36.089
56 1   -0.557  -22.269   36.048
57 1   -2.034  -20.397   31.610
58 1   -0.803  -19.926   38.885
59 1   -0.489  -16.912   36.425
60 1   -2.966  -17.866   34.072
61 1   -0.843  -13.675   37.634
62 1   -2.197  -11.876   34.247
63 1   -6.017  -14.748   33.139
ITEM: TIMESTEP
2
ITEM: NUMBER OF ATOMS
63
ITEM: BOX BOUNDS pp pp pp
-41.436302185058594 44.07769775390625
-41.92639923095703 43.58760070800781
-20.095500946044922 65.41850280761719
ITEM: ATOMS id type xu yu zu
1 1   35.766  -22.267  -20.096
2 1   33.041  -24.148  -17.679
3 1   39.189  -21.975  -18.539
4 1   37.672  -21.958  -14.830
5 1   35.656  -26.368  -14.105
6 1   40.439  -21.118  -12.243
7 1   38.168  -21.608   -8.974
8 1   36.550  -25.079  -10.875
9 1   39.889  -22.314   -5.692
10 1   37.152  -23.934   -3.938
11 1   36.190  -27.174   -7.220
12 1   37.370  -25.171   -0.776
13 1   33.867  -27.639   -0.825
14 1   34.900  -29.294   -4.391
15 1   33.122  -30.010    2.031
16 1   30.658  -32.459   -0.620
17 1   28.740  -35.009    0.625
18 1   27.077  -33.151    3.640
19 1   23.969  -31.158    0.793
20 1   25.537  -35.301    6.109
21 1   23.028  -31.979    7.483
22 1   20.831  -30.801    3.488
23 1   20.490  -32.704   10.295
24 1   17.711  -29.867    8.596
25 1   17.769  -32.195    5.146
26 1   14.841  -29.125   10.345
27 1   13.010  -28.065    7.362
28 1   13.549  -32.347    4.569
29 1    9.835  -27.174    7.685
30 1    9.034  -28.941    4.946
31 1   10.636  -32.515    7.044
32 1  -36.765  -13.846    9.629
33 1  -37.867  -16.004    5.883
34 1  -34.773  -15.483   11.368
35 1  -37.447  -18.165   12.288
36 1  -37.412  -19.231    7.983
37 1  -36.300  -20.696   15.095
38 1  -38.226  -23.557   12.869
39 1  -36.446  -23.714    8.774
40 1  -38.743  -27.101   14.588
41 1  -40.576  -28.267   10.912
42 1  -36.764  -27.356    8.910
43 1  -41.436  -31.726   11.016
44 1   41.612  -31.495   14.466
45 1   37.873  -29.928   12.546
46 1   42.518  -28.872   17.316
47 1   38.809  -27.701   17.092
48 1   37.341  -31.401   15.908
49 1   37.088  -25.176   19.697
50 1   33.722  -26.002   18.157
51 1   33.380  -30.674   17.415
52 1   31.020  -24.580   20.399
53 1   29.241  -28.201   21.528
54 1   29.787  -30.242   17.974
55 1   30.522  -29.849   24.802
56 1   29.539  -33.076   24.060
57 1   28.239  -34.001   19.438
58 1   30.154  -35.845   26.113
59 1   28.822  -38.259   23.832
60 1   30.526  -36.708   20.034
61 1   29.132  -41.926   24.258
62 1   32.827  -41.845   22.087
63 1   32.279  -39.372   17.483
ITEM: TIMESTEP
3
ITEM: NUMBER OF ATOMS
63
ITEM: BOX BOUNDS pp pp pp
-41.17780303955078 44.33619689941406
-35.42939758300781 50.08460235595703
-42.152198791503906 43.36180114746094
ITEM: ATOMS id type xu yu zu
1 1   30.576  -16.188   37.715
2 1   32.250  -18.165   40.433
3 1   31.190  -13.192   37.799
4 1   34.001  -13.241   40.582
5 1   36.411  -17.751   40.140
6 1   36.187  -10.338   40.851
7 1   39.332  -12.427   42.553
8 1   39.442  -15.539   40.208
9 1   42.579  -11.061  -42.152
10 1  -41.178  -14.757   42.246
11 1   42.675  -14.694   38.224
12 1  -37.512  -15.226   42.208
13 1  -37.636  -18.420   40.184
14 1  -39.988  -16.906   37.353
15 1  -34.484  -20.645   38.993
16 1  -34.042  -21.848   42.614
17 1  -35.735  -20.249  -39.921
18 1  -32.777  -21.271  -37.435
19 1  -33.660  -18.126  -35.363
20 1  -29.056  -21.960  -39.066
21 1  -28.026  -25.049  -36.739
22 1  -24.038  -25.719  -38.710
23 1  -27.854  -24.759  -33.294
24 1  -25.251  -27.879  -32.221
25 1  -22.572  -27.791  -36.044
26 1  -26.497  -30.979  -31.603
27 1  -23.728  -32.447  -29.708
28 1  -23.846  -29.173  -25.894
29 1  -23.648  -35.429  -28.436
30 1  -20.094  -34.700  -27.137
31 1  -21.449  -31.581  -24.320
32 1   25.580   14.463  -39.763
33 1   22.081   15.961  -37.047
34 1   25.844   10.830  -39.860
35 1   22.512   10.589  -41.130
36 1   20.776   12.679  -38.120
37 1   21.017    7.468  -41.457
38 1   23.090    5.960  -37.977
39 1   27.724    7.007  -39.391
40 1   22.758    2.772  -37.203
41 1   26.841    2.183  -37.130
42 1   27.021    3.555  -40.781
43 1   29.084    3.457  -34.823
44 1   26.474    6.070  -33.436
45 1   27.907    6.884  -29.459
46 1   22.897    5.181  -33.297
47 1   23.208    2.383  -31.255
48 1   26.057    3.648  -28.368
49 1   20.401    0.694  -29.997
50 1   22.132   -1.616  -27.066
51 1   25.317    1.458  -24.410
52 1   19.825   -3.398  -24.593
53 1   22.416   -4.427  -22.172
54 1   23.513   -0.913  -21.824
55 1   21.534   -5.839  -19.186
56 1   23.799   -4.075  -16.955
57 1   23.517    0.411  -17.512
58 1   27.702   -4.741  -17.049
59 1   28.830   -2.593  -13.259
60 1   25.759   -4.587  -10.632
61 1   32.125   -2.868  -11.981
62 1   31.277   -2.879   -8.217
63 1   27.462   -5.803   -6.949
ITEM: TIMESTEP
4
ITEM: NUMBER OF ATOMS
63
ITEM: BOX BOUNDS pp pp pp
-42.42179870605469 43.092201232910156
-4.840590000152588 80.67340850830078
-42.293601989746094 43.22039794921875
ITEM: ATOMS id type xu yu zu
1 1   37.405   13.631    4.075
2 1   39.600   15.254    7.586
3 1   34.867   11.686    4.915
4 1   32.947   14.768    6.383
5 1   35.936   17.076    9.400
6 1   29.525   14.263    7.796
7 1   29.398   17.683   10.071
8 1   32.951   16.839   11.502
9 1   26.743   18.496   12.244
10 1   26.949   21.887   11.763
11 1   30.176   23.047   15.572
12 1   27.865   22.789    8.575
13 1   28.666   26.468    9.662
14 1   30.197   25.986   13.617
15 1   30.339   28.580    7.529
16 1   31.075   30.778   10.321
17 1   33.657   30.606   12.203
18 1   35.549   27.902    9.573
19 1   36.695   30.305    6.036
20 1   38.205   25.657   10.615
21 1   40.110   25.261    7.133
22 1   40.967   29.700    5.563
23 1  -42.422   23.213    7.173
24 1  -40.555   25.405    4.666
25 1  -40.795   29.284    7.053
26 1  -37.376   24.313    3.317
27 1  -35.715   28.255    2.398
28 1  -39.048   31.493    3.995
29 1  -34.688   29.291   -0.726
30 1  -38.397   30.223   -2.044
31 1  -39.296   33.048    0.623
32 1  -13.512   31.347  -22.161
33 1  -16.312   29.419  -25.372
34 1  -11.806   28.457  -20.475
35 1  -15.134   26.673  -19.113
36 1  -16.550   29.968  -17.443
37 1  -15.012   23.864  -17.584
38 1  -17.773   22.134  -19.855
39 1  -21.797   25.196  -19.731
40 1  -19.015   18.808  -19.394
41 1  -20.064   18.383  -22.598
42 1  -22.058   22.271  -22.296
43 1  -22.262   15.636  -23.172
44 1  -20.434   14.660  -26.460
45 1  -15.871   16.393  -25.473
46 1  -20.481   10.808  -26.962
47 1  -16.948   10.219  -28.244
48 1  -15.088   12.254  -25.158
49 1  -15.819   11.228  -31.724
50 1  -13.212    8.107  -31.328
51 1  -15.507    3.614  -32.109
52 1  -10.390    8.221  -33.575
53 1  -10.197    4.269  -33.854
54 1  -14.244    3.861  -35.601
55 1   -7.546    2.685  -35.068
56 1  -10.002   -0.875  -35.126
57 1  -14.654   -0.316  -37.183
58 1   -8.736   -3.547  -36.772
59 1   -9.877   -1.920  -40.168
60 1   -6.834   -2.823  -42.294
61 1  -13.334   -2.290  -41.342
62 1  -12.492   -2.581   40.258
63 1   -8.390   -4.841   39.781
ITEM: TIMESTEP
5
ITEM: NUMBER OF ATOMS
63
ITEM: BOX BOUNDS pp pp pp
-42.81269836425781 42.70130157470703
-19.002399444580078 66.5115966796875
-41.28879928588867 44.22520065307617
ITEM: ATOMS id type xu yu zu
1 1  -37.929  -19.002   20.897
2 1  -35.226  -18.044   23.453
3 1  -40.499  -16.790   20.440
4 1  -40.322  -14.270   23.484
5 1  -36.028  -14.204   25.145
6 1  -42.813  -14.174   25.771
7 1  -42.476  -10.113   27.550
8 1  -38.886   -8.753   26.859
9 1   41.147   -8.590   30.097
10 1   41.909   -4.434   28.866
11 1  -38.907   -3.986   28.240
12 1   40.501   -1.638   30.233
13 1   41.425    0.335   27.245
14 1  -40.536   -0.514   27.718
15 1   40.266    3.851   27.700
16 1   39.662    4.226   23.529
17 1   37.697    7.147   21.904
18 1   36.629    5.083   18.838
19 1   36.119    1.549   21.007
20 1   33.584    5.982   16.823
21 1   32.852    2.451   15.255
22 1   32.209    0.933   19.186
23 1   30.251    2.067   13.113
24 1   30.256   -1.972   13.310
25 1   31.184   -2.336   17.569
26 1   27.359   -3.918   12.114
27 1   29.757   -6.503    9.404
28 1   30.401  -10.267   11.778
29 1   28.448   -7.718    5.792
30 1   25.367   -9.555    7.343
31 1   26.837  -10.067   11.176
32 1  -18.853    1.665  -27.517
33 1  -20.064   -2.363  -29.502
34 1  -17.280    0.597  -24.230
35 1  -17.507   -2.722  -25.205
36 1  -22.027   -2.524  -26.032
37 1  -16.416   -5.736  -22.931
38 1  -17.236   -8.399  -25.353
39 1  -16.511   -6.499  -29.765
40 1  -15.969  -11.211  -25.247
41 1  -17.384  -12.796  -28.503
42 1  -19.271   -8.926  -29.761
43 1  -19.284  -15.327  -28.440
44 1  -22.395  -13.770  -29.430
45 1  -21.308  -10.862  -32.921
46 1  -25.467  -15.627  -29.340
47 1  -26.424  -14.403  -32.898
48 1  -22.825  -14.380  -34.512
49 1  -28.472  -11.052  -33.372
50 1  -27.207  -10.061  -36.755
51 1  -23.855  -12.747  -38.198
52 1  -26.482   -6.256  -37.483
53 1  -26.519   -7.189  -41.289
54 1  -24.513  -10.644  -41.149
55 1  -25.627   -5.124   41.854
56 1  -23.918   -7.652   39.525
57 1  -20.500   -9.532   42.116
58 1  -22.271   -6.683   36.891
59 1  -22.336  -10.285   35.382
60 1  -20.746  -11.843   39.257
61 1  -20.673  -10.673   32.824
62 1  -22.676  -13.667   31.288
63 1  -27.518  -12.355   29.985
ITEM: TIMESTEP
6
ITEM: NUMBER OF ATOMS
63
ITEM: BOX BOUNDS pp pp pp
-40.69340133666992 44.82059860229492
-41.94379806518555 43.5702018737793
-37.131500244140625 48.38249969482422
ITEM: ATOMS id type xu yu zu
1 1   14.390  -12.900  -29.195
2 1   14.992  -17.028  -28.990
3 1   16.873  -11.370  -31.167
4 1   17.998  -14.376  -33.359
5 1   21.602  -16.482  -30.412
6 1   15.890  -16.830  -34.694
7 1   18.727  -19.452  -35.456
8 1   20.224  -19.556  -31.757
9 1   18.283  -22.837  -37.132
10 1   19.007  -25.040  -33.660
11 1   15.128  -27.979  -32.638
12 1   20.102  -22.984  -30.657
13 1   21.066  -26.320  -28.758
14 1   17.640  -29.004  -30.237
15 1   22.493  -26.425  -25.466
16 1   24.130  -29.698  -25.859
17 1   22.127  -32.259  -26.419
18 1   24.938  -35.042  -25.659
19 1   23.358  -36.104  -21.965
20 1   24.911  -37.274  -27.664
21 1   25.430  -40.425  -25.043
22 1   21.661  -39.945  -22.669
23 1   25.749   41.854  -26.108
24 1   21.871   40.910  -24.776
25 1   20.322  -40.541  -26.072
26 1   20.220   38.042  -26.038
27 1   16.588   39.242  -24.767
28 1   16.223  -41.944  -26.226
29 1   13.821   37.248  -25.234
30 1   11.250   39.511  -24.083
31 1   12.818   42.139  -26.236
32 1   36.552  -33.634   20.400
33 1   41.092  -33.673   18.527
34 1   33.976  -35.550   18.877
35 1   35.102  -33.730   15.144
36 1   39.109  -34.739   15.644
37 1   33.460  -34.455   12.309
38 1   36.769  -34.024    9.932
39 1   39.921  -36.822   12.251
40 1   37.116  -34.413    6.360
41 1   40.418  -36.591    6.662
42 1   41.617  -34.337   10.224
43 1   42.750  -36.698    3.889
44 1   42.357  -32.538    3.105
45 1   42.533  -30.998    7.762
46 1  -40.613  -30.878    1.261
47 1  -40.693  -27.856    4.025
48 1  -39.568  -30.332    6.930
49 1  -38.831  -24.955    3.794
50 1  -39.889  -23.891    7.632
51 1  -39.205  -27.743   10.160
52 1  -38.383  -21.061    8.907
53 1  -38.587  -22.247   12.289
54 1  -39.502  -18.738   13.882
55 1  -35.901  -23.757   13.669
56 1  -35.965  -21.281   16.855
57 1  -40.574  -19.974   18.010
58 1  -33.457  -21.492   19.557
59 1  -35.279  -18.994   21.958
60 1  -39.218  -21.074   21.223
61 1  -34.502  -18.560   24.998
62 1  -35.824  -15.050   24.866
63 1  -39.437  -14.588   27.990
ITEM: TIMESTEP
7
ITEM: NUMBER OF ATOMS
63
ITEM: BOX BOUNDS pp pp pp
-15.647300720214844 69.86669921875
-41.56169891357422 43.952301025390625
-9.671090126037598 75.84291076660156
ITEM: ATOMS id type xu yu zu
1 1  -11.937   34.767   -7.018
2 1  -11.896   32.697   -3.020
3 1  -13.807   32.831   -9.382
4 1  -12.353   29.423   -8.371
5 1  -12.597   28.723   -3.432
6 1   -9.172   28.284   -9.610
7 1   -9.673   24.817   -8.079
8 1  -11.773   25.462   -4.800
9 1   -7.208   21.750   -8.093
10 1   -9.454   18.888   -6.509
11 1  -12.189   16.982   -9.671
12 1   -8.243   16.483   -3.874
13 1  -10.249   13.884   -5.300
14 1   -9.026   14.958   -9.132
15 1   -9.290   10.582   -4.388
16 1  -10.866    9.309   -7.778
17 1  -11.075    5.382   -8.736
18 1  -12.376    4.741   -4.870
19 1   -9.304    6.250   -3.366
20 1  -13.198    1.092   -3.290
21 1  -12.927    2.301    0.227
22 1   -8.556    4.664    0.390
23 1  -13.207    0.163    3.013
24 1  -10.992    2.700    5.730
25 1   -8.171    2.686    3.351
26 1  -10.460    1.657    9.228
27 1  -10.596    5.276   10.755
28 1  -14.639    7.215    9.307
29 1  -10.273    5.979   14.290
30 1  -11.656    9.546   13.725
31 1  -15.647    8.651   12.643
32 1   10.353  -38.845    3.507
33 1   12.241  -41.562    0.587
34 1   11.496  -39.005    7.053
35 1   11.490   42.385    6.752
36 1   14.091   42.966    3.525
37 1   12.718   40.511    9.014
38 1   12.962   37.408    6.871
39 1   15.550   38.919    2.929
40 1   14.579   34.602    8.155
41 1   14.571   32.231    5.235
42 1   15.778   35.327    2.557
43 1   16.889   29.285    5.278
44 1   14.374   26.455    7.145
45 1   12.823   28.353   10.908
46 1   11.739   24.973    5.405
47 1    9.878   23.863    8.720
48 1    9.408   28.112    9.421
49 1    7.077   22.431    8.348
50 1    5.301   23.422   11.292
51 1    7.577   22.571   15.187
52 1    3.633   26.896   11.167
53 1    2.770   26.819   14.995
54 1    6.624   25.888   16.484
55 1    1.235   29.673   16.474
56 1    1.436   28.505   20.486
57 1    4.860   25.368   20.802
58 1    2.069   30.973   22.669
59 1    1.866   28.613   25.711
60 1    5.391   26.301   24.317
61 1    2.509   29.888   29.187
62 1    4.560   32.596   27.970
63 1    9.266   30.800   26.774
ITEM: TIMESTEP
8
ITEM: NUMBER OF ATOMS
63
ITEM: BOX BOUNDS pp pp pp
-42.56439971923828 42.94960021972656
-42.53349685668945 42.98050308227539
-42.643898010253906 42.87010192871094
ITEM: ATOMS id type xu yu zu
1 1   29.763   19.776   24.089
2 1   33.238   20.612   22.784
3 1   27.462   22.143   25.100
4 1   29.409   25.432   23.819
5 1   33.886   25.147   25.186
6 1   28.116   29.003   24.044
7 1   30.502   29.819   21.684
8 1   33.917   29.181   24.353
9 1   30.294   27.634   18.687
10 1   30.130   30.389   15.886
11 1   26.112   32.612   16.826
12 1   30.069   29.270   12.069
13 1   31.798   32.456   10.666
14 1   29.268   35.208   13.111
15 1   32.093   32.982    6.840
16 1   35.584   31.635    6.445
17 1   37.248   32.044    3.874
18 1   39.605   28.595    4.172
19 1   42.522   30.271    7.132
20 1   40.836   27.027    0.796
21 1   42.464   30.195   -0.646
22 1  -39.747   31.345    1.595
23 1  -42.484   30.236   -4.620
24 1  -40.555   33.421   -4.344
25 1  -37.721   31.439   -1.647
26 1  -39.116   34.903   -7.052
27 1  -39.445   38.887   -6.237
28 1  -37.672   39.662   -1.954
29 1   42.414   40.676   -6.786
30 1  -42.564  -42.324   -3.833
31 1  -38.537  -42.533   -3.377
32 1  -15.138   22.857  -20.440
33 1  -14.924   18.272  -19.036
34 1  -14.325   22.472  -23.878
35 1  -17.636   20.021  -24.916
36 1  -16.952   17.353  -22.051
37 1  -18.327   18.785  -28.227
38 1  -15.119   16.102  -28.092
39 1  -13.327   16.357  -23.601
40 1  -11.974   16.933  -30.250
41 1  -10.189   13.516  -28.979
42 1   -9.951   14.828  -24.574
43 1   -7.152   12.085  -30.730
44 1   -8.866    8.469  -31.017
45 1  -13.018    9.208  -33.338
46 1   -7.559    5.537  -31.777
47 1  -11.140    4.449  -32.767
48 1  -11.417    7.250  -35.857
49 1  -11.966    1.148  -33.766
50 1   -8.863    0.248  -35.279
51 1  -10.913   -3.080  -38.078
52 1   -7.143    2.280  -37.399
53 1   -6.121   -0.583  -39.893
54 1  -10.044   -0.900  -40.920
55 1   -3.209    0.379  -42.423
56 1   -5.287    3.538   41.537
57 1  -10.192    2.602   41.637
58 1   -4.799    6.709  -42.644
59 1   -7.572    8.491   40.454
60 1   -9.269    5.237   38.559
61 1   -6.709   11.130   38.240
62 1  -10.393   11.401   36.985
63 1  -11.042    7.210   35.310
ITEM: TIMESTEP
9
ITEM: NUMBER OF ATOMS
63
ITEM: BOX BOUNDS pp pp pp
-40.9822998046875 44.531700134277344
-42.85150146484375 42.662498474121094
-20.689699172973633 64.82430267333984
ITEM: ATOMS id type xu yu zu
1 1  -39.161  -41.330  -17.591
2 1  -35.231  -41.110  -17.642
3 1  -40.982   41.113  -16.004
4 1  -38.205   38.735  -16.874
5 1  -33.947   40.834  -15.692
6 1  -38.021   35.605  -15.665
7 1  -34.550   35.115  -16.592
8 1  -32.629   37.824  -13.858
9 1  -33.429   32.200  -16.187
10 1  -29.605   33.303  -16.485
11 1  -29.428   35.407  -12.173
12 1  -27.292   31.090  -16.556
13 1  -24.777   33.324  -14.165
14 1  -27.069   32.726  -10.759
15 1  -21.212   32.091  -13.719
16 1  -20.760   33.841  -10.575
17 1  -18.035   34.011   -9.147
18 1  -19.440   35.589   -5.808
19 1  -21.931   32.273   -5.196
20 1  -16.916   35.525   -3.337
21 1  -19.413   33.628   -0.316
22 1  -20.867   29.949   -1.959
23 1  -18.556   33.269    3.428
24 1  -21.261   31.135    3.906
25 1  -19.655   28.622    1.422
26 1  -21.788   29.897    7.272
27 1  -23.755   26.718    6.456
28 1  -20.899   24.804    3.443
29 1  -25.354   24.590    9.086
30 1  -24.843   21.377    7.053
31 1  -20.946   22.231    6.064
32 1  -15.647   16.612   -0.587
33 1  -17.472   19.725    2.325
34 1  -17.397   16.529   -3.505
35 1  -20.484   17.624   -1.760
36 1  -19.006   21.343   -0.821
37 1  -23.429   17.451   -3.703
38 1  -25.723   19.810   -1.517
39 1  -22.597   23.743   -1.316
40 1  -28.803   20.490   -2.283
41 1  -28.619   24.130   -0.466
42 1  -25.232   25.838   -2.712
43 1  -31.493   26.376   -0.190
44 1  -29.550   29.416    1.138
45 1  -26.712   30.449   -2.330
46 1  -31.778   32.351    1.786
47 1  -29.174   35.025    0.784
48 1  -29.106   33.175   -3.085
49 1  -29.729   38.416    0.720
50 1  -27.191   38.921   -2.699
51 1  -28.163   36.181   -6.192
52 1  -26.095  -42.852   -3.569
53 1  -24.597   41.517   -7.136
54 1  -28.445   39.643   -8.297
55 1  -23.452  -41.290   -9.410
56 1  -23.893   42.382  -12.382
57 1  -28.128   40.672  -12.589
58 1  -22.531   43.036  -15.274
59 1  -24.560   39.860  -17.236
60 1  -28.500   41.532  -16.240
61 1  -24.185   39.084  -20.256
62 1  -27.790   37.594  -20.690
63 1  -31.061   41.393  -19.591
ITEM: TIMESTEP
10
ITEM: NUMBER OF ATOMS
63
ITEM: BOX BOUNDS pp pp pp
-41.417598724365234 44.09640121459961
-42.240901947021484 43.27309799194336
-10.94480037689209 74.56919860839844
ITEM: ATOMS id type xu yu zu
1 1  -37.548   38.992   34.597
2 1  -40.886   37.213   34.195
3 1  -34.832   36.989   36.317
4 1  -36.364   33.240   35.406
5 1  -40.676   33.045   33.119
6 1  -35.044   30.062   36.533
7 1  -37.018   28.321   34.167
8 1  -40.665   30.020   35.066
9 1  -37.392   24.867   34.240
10 1  -38.755   24.439   30.244
11 1  -36.522   27.600   27.893
12 1  -39.851   21.525   28.483
13 1  -38.485   22.861   24.871
14 1  -35.068   24.608   26.421
15 1  -38.191   21.039   22.222
16 1  -41.418   22.564   20.543
17 1   40.677   21.068   21.027
18 1   39.124   24.270   21.460
19 1   38.051   24.443   17.453
20 1   36.356   24.173   23.889
21 1   35.787   20.405   23.457
22 1   39.610   18.670   25.133
23 1   33.262   18.724   24.499
24 1   35.021   16.691   27.764
25 1   38.424   15.287   25.352
26 1   33.170   14.282   29.402
27 1   32.888   11.559   26.143
28 1   28.385   10.220   26.249
29 1   33.834   12.443   22.591
30 1   30.746   14.530   21.670
31 1   28.154   13.738   25.406
32 1   10.043   39.286   -0.882
33 1    7.785   40.221   -5.272
34 1   13.408   41.083   -0.540
35 1   13.666  -41.836   -3.654
36 1   10.952   41.646   -6.391
37 1   17.103  -40.740   -4.778
38 1   17.321  -38.266   -2.060
39 1   14.282  -40.209    1.420
40 1   20.317  -38.388   -0.500
41 1   18.698  -37.955    3.120
42 1   17.083  -42.241    2.557
43 1   20.826  -37.718    6.107
44 1   24.234  -36.935    4.490
45 1   23.251  -32.988    2.578
46 1   27.360  -36.937    6.466
47 1   29.222  -34.918    4.210
48 1   26.562  -31.796    4.022
49 1   32.659  -34.168    5.108
50 1   33.058  -30.796    3.699
51 1   29.276  -29.666    1.492
52 1   36.283  -29.574    1.773
53 1   35.809  -25.837    1.693
54 1   31.600  -26.770    0.701
55 1   38.042  -23.236   -0.409
56 1   35.633  -19.569   -0.304
57 1   38.595  -16.420   -0.943
58 1   33.164  -19.095   -2.279
59 1   35.187  -17.231   -4.968
60 1   35.956  -13.960   -2.146
61 1   33.521  -16.456   -8.108
62 1   35.155  -19.208  -10.168
63 1   31.754  -22.355  -10.945
ITEM: TIMESTEP
11
ITEM: NUMBER OF ATOMS
63
ITEM: BOX BOUNDS pp pp pp
-35.66790008544922 49.846099853515625
-7.857880115509033 77.65612030029297
-31.93470001220703 53.57929992675781
ITEM: ATOMS id type xu yu zu
1 1    7.035   10.484  -15.285
2 1   10.044    7.637  -14.793
3 1    7.878   13.078  -17.675
4 1   11.892   11.954  -18.030
5 1   12.991   10.341  -13.744
6 1   14.661   14.636  -19.009
7 1   17.255   11.953  -18.870
8 1   16.033    9.908  -15.690
9 1   20.394   12.363  -18.961
10 1   20.664    8.148  -19.026
11 1   17.983    6.429  -16.090
12 1   23.384    6.443  -19.411
13 1   21.504    3.988  -21.529
14 1   17.824    4.664  -19.806
15 1   21.608    3.433  -24.994
16 1   24.842    5.796  -25.190
17 1   25.567    6.993  -28.161
18 1   28.700    8.010  -26.967
19 1   27.099   10.655  -24.058
20 1   30.709    9.573  -29.082
21 1   33.324    7.196  -28.738
22 1   31.211    4.124  -26.219
23 1   34.561    5.428  -31.935
24 1   36.028    2.458  -30.165
25 1   32.859    1.375  -28.586
26 1   38.061   -0.130  -31.853
27 1   37.276   -2.975  -30.074
28 1   35.279   -1.460  -26.231
29 1   39.641   -5.342  -29.068
30 1   37.473   -7.858  -28.474
31 1   35.567   -5.119  -25.343
32 1  -12.996   13.022  -15.987
33 1  -16.882   15.802  -15.541
34 1   -9.998   14.215  -13.939
35 1  -11.825   14.061  -10.806
36 1  -14.865   16.014  -12.434
37 1  -10.571   14.829   -7.179
38 1  -12.492   11.891   -5.522
39 1  -12.542    8.930   -8.772
40 1  -15.930   12.391   -3.808
41 1  -17.747   12.214   -7.225
42 1  -16.090    8.384   -7.901
43 1  -21.398   12.530   -7.042
44 1  -21.940   10.205  -10.168
45 1  -19.924    6.309   -9.062
46 1  -25.017    9.663  -11.953
47 1  -25.177    5.866  -11.815
48 1  -23.424    5.465   -8.244
49 1  -28.184    3.879  -12.748
50 1  -27.304    0.776  -10.458
51 1  -25.893    2.469   -6.635
52 1  -29.221   -2.411  -10.388
53 1  -27.343   -3.753   -7.688
54 1  -27.735   -0.496   -5.443
55 1  -28.506   -6.715   -5.881
56 1  -27.500   -5.250   -1.948
57 1  -29.841   -1.605   -1.378
58 1  -28.365   -7.657    0.777
59 1  -27.881   -5.314    3.768
60 1  -29.931   -1.913    2.130
61 1  -28.916   -6.163    7.253
62 1  -33.112   -7.248    6.670
63 1  -35.668   -5.112   10.534
ITEM: TIMESTEP
12
ITEM: NUMBER OF ATOMS
63
ITEM: BOX BOUNDS pp pp pp
-41.79570007324219 43.718299865722656
-42.220401763916016 43.29359817504883
-39.884300231933594 45.62969970703125
ITEM: ATOMS id type xu yu zu
1 1    6.901   38.861   38.587
2 1    3.544   36.077   38.720
3 1    5.921   42.571   37.761
4 1    2.365   41.633   36.973
5 1    0.709   38.698   40.863
6 1   -0.022  -41.420   36.520
7 1   -3.094   42.042   36.975
8 1   -1.977   41.118   40.296
9 1   -6.025  -42.220   36.673
10 1   -7.674   39.722   37.742
11 1   -4.507   37.985   40.561
12 1  -11.465   39.107   38.793
13 1  -10.279   35.778   41.125
14 1   -7.553   38.088   42.941
15 1  -12.757   34.440   43.167
16 1   -9.910   33.249  -39.712
17 1  -10.855   31.803  -36.936
18 1   -7.494   32.052  -35.233
19 1   -7.514   36.057  -35.908
20 1   -7.114   31.163  -31.506
21 1   -3.814   33.125  -30.669
22 1   -5.429   36.825  -32.006
23 1   -2.497   33.407  -28.075
24 1   -0.861   36.911  -28.981
25 1   -4.635   38.964  -29.323
26 1    1.705   38.265  -27.130
27 1   -0.920   40.157  -24.736
28 1   -3.388   42.500  -27.519
29 1   -0.223   41.795  -21.907
30 1   -4.239   41.678  -20.248
31 1   -3.062  -41.974  -16.202
32 1   35.343  -25.876  -19.292
33 1   37.050  -30.395  -20.336
34 1   37.296  -23.265  -21.567
35 1   40.576  -24.925  -20.992
36 1   39.119  -28.502  -22.855
37 1  -41.796  -23.511  -22.619
38 1  -41.784  -20.353  -20.759
39 1  -39.372  -21.226  -17.361
40 1  -40.988  -17.273  -22.710
41 1  -39.589  -15.170  -19.757
42 1  -37.516  -18.433  -18.484
43 1  -38.009  -12.065  -20.112
44 1  -34.571  -13.612  -19.139
45 1  -33.964  -18.395  -20.553
46 1  -31.960  -11.818  -19.161
47 1  -29.647  -14.560  -19.097
48 1  -31.246  -16.247  -22.486
49 1  -26.244  -13.875  -19.374
50 1  -25.021  -17.291  -21.605
51 1  -28.117  -17.081  -25.452
52 1  -21.737  -17.466  -22.459
53 1  -21.560  -15.032  -25.311
54 1  -25.616  -16.108  -27.927
55 1  -18.619  -14.849  -27.243
56 1  -20.275  -15.553  -30.722
57 1  -24.585  -12.822  -30.735
58 1  -18.676  -15.591  -33.908
59 1  -20.176  -11.813  -35.233
60 1  -24.509  -12.878  -34.470
61 1  -19.849  -10.799  -38.230
62 1  -21.490  -13.793  -39.884
63 1  -20.802  -17.961  -37.429
ITEM: TIMESTEP
13
ITEM: NUMBER OF ATOMS
63
ITEM: BOX BOUNDS pp pp pp
-41.752201080322266 43.76179885864258
15.294699668884277 100.80870056152344
-43.10569763183594 42.408302307128906
ITEM: ATOMS id type xu yu zu
1 1   35.487   31.296   40.034
2 1   38.813   32.725   41.441
3 1   35.908   28.980   37.228
4 1   39.060   31.309   35.309
5 1   42.218   32.563   39.098
6 1   40.971   29.547   32.778
7 1  -41.752   31.992   32.879
8 1  -40.623   30.916   37.118
9 1  -38.782   31.732   30.630
10 1  -36.193   33.846   33.349
11 1  -36.260   31.072   36.881
12 1  -33.381   35.275   32.790
13 1  -31.532   34.775   35.917
14 1  -32.417   30.603   36.381
15 1  -28.231   35.958   36.383
16 1  -27.876   33.926   39.514
17 1  -24.998   34.228   41.343
18 1  -25.094   30.449   42.617
19 1  -26.018   28.925   38.795
20 1  -22.448   29.540  -41.424
21 1  -22.505   25.905  -42.692
22 1  -22.479   26.263   38.060
23 1  -19.996   23.175  -41.635
24 1  -20.828   20.867   40.512
25 1  -19.559   23.621   37.828
26 1  -19.276   17.611   40.339
27 1  -18.496   17.356   36.128
28 1  -17.163   21.556   35.032
29 1  -15.943   15.295   35.411
30 1  -15.272   17.013   32.052