ITEM: TIMESTEP
0
ITEM: NUMBER OF ATOMS
64
ITEM: BOX BOUNDS pp pp pp
-27.119300842285156 58.39469909667969
-35.28820037841797 50.225799560546875
-35.062599182128906 50.45140075683594
ITEM: ATOMS id type xu yu zu
1 1  -22.951  -10.133  -29.076
2 1  -23.572  -12.866  -26.135
3 1  -25.727   -8.849  -30.419
4 1  -24.612   -5.000  -30.600
5 1  -20.316   -4.408  -33.405
6 1  -27.119   -3.051  -32.187
7 1  -24.766    0.083  -32.781
8 1  -21.827   -1.608  -35.063
9 1  -26.381    3.375  -34.414
10 1  -23.374    5.689  -33.399
11 1  -24.992    7.556  -28.886
12 1  -20.057    4.425  -33.465
13 1  -18.776    7.273  -30.526
14 1  -17.129   10.185  -33.418
15 1  -16.787    6.164  -27.722
16 1  -15.489   10.098  -27.175
17 1  -19.030   11.761  -24.901
18 1  -12.328   10.344  -24.807
19 1  -12.893   13.590  -23.529
20 1  -16.869   13.377  -22.474
21 1  -10.741   14.804  -20.615
22 1  -13.176   17.232  -19.097
23 1  -17.218   14.599  -18.111
24 1  -12.122   19.760  -16.287
25 1  -15.908   19.877  -14.486
26 1  -15.727   15.924  -13.757
27 1  -16.501   22.109  -11.673
28 1  -19.231   19.408  -10.050
29 1  -16.888   14.945   -9.794
30 1  -21.108   19.807   -6.878
31 1  -21.065   15.814   -6.775
32 1  -17.809   15.735   -3.702
33 1   21.439  -30.389  -11.989
34 1   22.438  -35.288  -12.246
35 1   18.571  -29.604  -12.625
36 1   16.604  -31.744  -10.057
37 1   19.182  -35.155  -10.603
38 1   13.309  -31.818  -10.330
39 1   12.926  -29.757   -7.324
40 1   15.935  -26.442   -8.017
41 1    9.834  -28.330   -5.795
42 1    9.718  -25.508   -8.783
43 1   13.274  -23.736   -7.939
44 1    6.927  -23.205   -8.717
45 1    9.277  -20.264   -7.256
46 1   12.650  -20.090  -10.022
47 1    8.009  -17.132   -6.483
48 1   10.922  -15.134   -8.533
49 1    9.857  -17.512  -11.413
50 1   10.427  -11.328   -8.906
51 1   12.812  -11.644  -12.304
52 1   17.236  -11.913  -10.894
53 1   12.199   -9.559  -15.288
54 1   15.924   -8.075  -15.487
55 1   18.423  -11.811  -14.288
56 1   16.747   -6.495  -18.191
57 1   20.462   -6.612  -17.555
58 1   21.387  -11.458  -17.921
59 1   22.611   -4.927  -19.700
60 1   24.947   -7.713  -20.529
61 1   21.982  -10.116  -21.663
62 1   27.691   -7.280  -22.752
63 1   26.088   -3.964  -23.549
64 1   29.505   -1.349  -26.310
ITEM: TIMESTEP
1
ITEM: NUMBER OF ATOMS
64
ITEM: BOX BOUNDS pp pp pp
-42.563499450683594 42.95050048828125
-43.09020233154297 42.423797607421875
-42.03450012207031 43.47949981689453
ITEM: ATOMS id type xu yu zu
1 1   37.416    4.121  -42.035
2 1   38.563    0.402  -42.009
3 1   33.595    4.606  -41.719
4 1   33.467    2.066  -38.341
5 1   36.396   -1.765  -39.116
6 1   30.589    1.180  -36.684
7 1   30.390    4.309  -34.338
8 1   32.294    2.719  -31.416
9 1   31.230    7.400  -35.044
10 1   31.269    9.119  -31.216
11 1   32.954    5.595  -28.266
12 1   32.598   12.687  -30.538
13 1   32.556   12.200  -26.462
14 1   34.981    8.434  -26.515
15 1   33.857   15.128  -24.331
16 1   34.801   12.638  -21.476
17 1   37.475    9.394  -23.118
18 1   32.666   11.385  -19.433
19 1   35.189   11.043  -16.136
20 1   38.188    8.713  -18.009
21 1   36.677   13.857  -15.108
22 1   40.309   12.032  -15.293
23 1   39.186    7.708  -14.001
24 1   42.773   13.295  -12.599
25 1  -39.395   12.282  -14.325
26 1  -37.439   14.906  -12.186
27 1  -38.374    9.191  -14.704
28 1  -38.827    7.850  -10.813
29 1   42.255    8.672  -10.079
30 1  -37.829    4.823   -9.451
31 1  -37.684    3.342  -12.724
32 1  -38.787   -0.503  -10.862
33 1  -23.138   32.032  -36.431
34 1  -21.502   31.912  -40.748
35 1  -26.535   33.061  -36.333
36 1  -25.952   35.870  -39.351
37 1  -21.861   36.496  -39.164
38 1  -27.511   35.737  -41.916
39 1  -25.151   38.355   41.701
40 1  -21.319   36.514   41.862
41 1  -25.945   40.449   38.846
42 1  -23.155   38.988   36.554
43 1  -20.208   39.613   40.005
44 1  -22.713   40.590   33.166
45 1  -26.111   39.636   32.296
46 1  -28.630  -42.258   33.836
47 1  -26.598   39.064   28.745
48 1  -29.517   41.359   28.101
49 1  -31.272   40.991   31.612
50 1  -31.261   40.919   25.021
51 1  -33.670  -41.720   25.870
52 1  -35.006  -43.090   30.425
53 1  -35.950  -40.206   24.058
54 1  -38.138  -39.775   26.701
55 1  -37.656   41.886   27.681
56 1  -41.775  -38.598   25.788
57 1  -42.563  -42.265   23.713
58 1  -39.527   39.164   24.649
59 1   39.405   42.323   22.199
60 1   39.188   38.958   23.690
61 1  -42.411   37.658   23.060
62 1   36.556   36.841   23.072
63 1   36.053   38.025   19.481
64 1   31.309   36.581   18.244
ITEM: TIMESTEP
2
ITEM: NUMBER OF ATOMS
64
ITEM: BOX BOUNDS pp pp pp
-31.303998947143555 54.209999084472656
-42.71049880981445 42.80350112915039
-34.918399810791016 50.59560012817383
ITEM: ATOMS id type xu yu zu
1 1  -20.763  -14.234  -32.934
2 1  -22.118  -10.820  -34.918
3 1  -17.450  -15.600  -34.200
4 1  -15.787  -15.213  -30.972
5 1  -11.446  -14.263  -32.596
6 1  -15.682  -17.914  -28.530
7 1  -12.503  -16.853  -26.488
8 1   -9.758  -16.160  -29.904
9 1  -10.962  -18.843  -23.449
10 1   -8.145  -16.766  -23.312
11 1   -6.612  -15.193  -27.795
12 1   -5.914  -16.537  -20.584
13 1   -3.081  -14.794  -22.580
14 1   -0.465  -15.920  -20.163
15 1   -2.664  -15.726  -26.018
16 1   -2.091  -19.598  -25.202
17 1    1.093  -19.642  -21.075
18 1   -4.889  -21.839  -24.886
19 1   -2.760  -24.005  -23.033
20 1    0.111  -24.506  -26.083
21 1   -4.134  -26.613  -20.971
22 1   -2.682  -29.160  -23.530
23 1    1.841  -27.720  -24.223
24 1   -3.131  -32.295  -23.365
25 1    0.261  -33.029  -21.423
26 1   -1.528  -36.279  -19.056
27 1    3.442  -33.448  -22.800
28 1    3.885  -36.442  -20.789
29 1    2.098  -35.320  -16.532
30 1    6.651  -37.999  -20.944
31 1    5.411  -41.446  -21.170
32 1    4.789  -41.390  -25.554
33 1  -24.341  -40.853   -4.434
34 1  -22.443   41.876   -0.729
35 1  -26.325  -38.524   -3.350
36 1  -28.349  -40.833   -1.343
37 1  -25.092  -41.757    1.284
38 1  -31.304  -39.800    0.055
39 1  -31.225   42.778    2.582
40 1  -27.943   38.960    0.997
41 1  -30.130  -41.898    5.895
42 1  -30.898   40.238    7.833
43 1  -28.511   37.973    5.571
44 1  -30.617   39.883   10.963
45 1  -28.757   36.619   10.896
46 1  -30.574   34.485    7.193
47 1  -25.299   36.828   10.660
48 1  -24.857   40.065   13.648
49 1  -27.377   38.093   16.896
50 1  -21.616   41.385   14.507
51 1  -22.575  -42.710   18.178
52 1  -24.217   39.130   20.385
53 1  -20.231  -40.887   20.318
54 1  -22.666  -41.460   23.826
55 1  -22.169   40.453   23.214
56 1  -21.701  -40.301   26.522
57 1  -23.283   42.630   29.101
58 1  -22.261   38.224   27.183
59 1  -22.393   42.519   32.259
60 1  -24.392   39.102   33.163
61 1  -22.967   36.781   30.490
62 1  -24.370   37.986   36.448
63 1  -25.571   34.726   35.008
64 1  -22.537   31.435   35.873
ITEM: TIMESTEP
3
ITEM: NUMBER OF ATOMS
64
ITEM: BOX BOUNDS pp pp pp
-40.270599365234375 45.24340057373047
-42.72999572753906 42.78400421142578
-40.92420196533203 44.58979797363281
ITEM: ATOMS id type xu yu zu
1 1  -34.783  -40.650  -26.284
2 1  -36.364  -36.863  -26.253
3 1  -37.311   42.408  -25.376
4 1  -40.170  -41.724  -27.510
5 1  -40.271  -36.965  -27.255
6 1   42.514  -42.730  -27.090
7 1   41.084  -40.622  -29.674
8 1   41.591  -36.663  -27.282
9 1   42.611  -40.710  -33.162
10 1   39.760  -38.385  -34.492
11 1   37.164  -38.069  -30.828
12 1   41.037  -34.901  -35.392
13 1   37.354  -32.663  -35.653
14 1   35.179  -35.680  -33.021
15 1   37.555  -29.335  -34.203
16 1   36.421  -30.689  -30.398
17 1   32.616  -32.995  -30.848
18 1   36.174  -28.547  -27.892
19 1   35.371  -31.117  -24.741
20 1   31.786  -32.293  -27.283
21 1   34.603  -29.945  -21.363
22 1   31.474  -27.673  -22.651
23 1   28.321  -30.816  -24.961
24 1   29.663  -25.662  -20.620
25 1   27.099  -28.162  -18.571
26 1   26.752  -30.008  -21.739
27 1   24.300  -27.583  -16.666
28 1   24.940  -30.799  -15.054
29 1   27.692  -33.921  -17.804
30 1   26.144  -31.053  -11.667
31 1   27.767  -34.615  -12.691
32 1   26.755  -36.009   -9.296
33 1   -5.407  -11.497  -36.509
34 1   -2.845   -8.713  -34.813
35 1   -9.051  -11.286  -35.135
36 1   -8.688   -7.489  -33.827
37 1   -5.313   -7.831  -32.035
38 1  -11.369   -5.690  -31.965
39 1   -8.911   -3.269  -29.705
40 1   -5.374   -5.632  -28.294
41 1  -10.469   -1.658  -27.179
42 1   -7.152    0.228  -27.157
43 1   -5.210   -2.828  -25.605
44 1   -6.810    2.892  -24.871
45 1   -3.524    3.715  -26.419
46 1   -0.820    1.596  -23.895
47 1   -2.213    6.773  -27.644
48 1    1.095    4.994  -29.321
49 1    1.676    2.739  -26.360
50 1    3.788    6.922  -30.152
51 1    5.622    4.146  -31.157
52 1    6.663    2.943  -27.169
53 1    8.830    4.531  -33.388
54 1   10.178    6.765  -31.225
55 1   10.123    3.742  -28.053
56 1   13.866    7.839  -31.773
57 1   13.144   11.176  -33.690
58 1    8.868   11.258  -35.379
59 1   15.365   13.508  -35.264
60 1   12.541   16.572  -36.125
61 1    8.714   14.470  -37.173
62 1   13.249   19.798  -37.968
63 1   12.064   17.963  -40.924
64 1    7.456   17.076  -40.422
ITEM: TIMESTEP
4
ITEM: NUMBER OF ATOMS
64
ITEM: BOX BOUNDS pp pp pp
-42.53369903564453 42.98030090332031
-3.0806498527526855 82.433349609375
-42.66559982299805 42.8484001159668
ITEM: ATOMS id type xu yu zu
1 1  -41.118   22.065  -27.508
2 1  -39.174   21.268  -31.615
3 1   40.249   22.431  -27.597
4 1   40.286   23.891  -31.172
5 1  -42.325   21.472  -34.506
6 1   36.773   24.430  -32.770
7 1   38.035   24.037  -36.648
8 1   40.260   20.054  -36.121
9 1   35.455   24.008  -39.394
10 1   37.837   22.072  -42.308
11 1   39.270   17.971  -39.776
12 1   36.666   21.427   40.201
13 1   39.677   19.028   40.076
14 1   37.673   16.847   42.662
15 1   40.767   17.484   36.745
16 1   41.592   13.870   38.876
17 1   37.699   12.775   41.110
18 1  -42.311   11.155   37.124
19 1   42.096    8.396   39.824
20 1   38.217    9.527   39.329
21 1  -42.534    4.768   39.269
22 1   39.959    3.682   41.347
23 1   36.066    5.737   38.889
24 1   39.032    0.214   41.995
25 1   35.276    0.424   42.592
26 1   34.501    2.467   38.677
27 1   33.391   -3.081  -42.391
28 1   29.849   -1.804   41.065
29 1   31.416    0.389   36.903
30 1   27.180    0.285   42.870
31 1   27.767   -2.301  -39.386
32 1   29.657    1.085  -37.528
33 1   30.076    1.228   26.983
34 1   30.583    0.217   31.700
35 1   30.256    5.295   26.895
36 1   28.049    5.504   29.889
37 1   30.763    4.067   32.277
38 1   26.655    8.562   31.028
39 1   26.132    7.574   35.005
40 1   30.488    5.798   36.060
41 1   25.353   10.143   37.732
42 1   27.171    8.175   40.196
43 1   30.868    8.628   38.564
44 1   26.360    9.266  -41.643
45 1   29.916    7.520  -40.429
46 1   32.921    9.099   42.025
47 1   31.155    7.499  -36.994
48 1   34.911    6.902  -37.956
49 1   34.804   10.207  -40.100
50 1   37.189    6.345  -35.677
51 1   40.256    7.818  -38.160
52 1   38.926   11.824  -39.367
53 1  -41.831    7.873  -36.747
54 1  -40.779   10.650  -39.373
55 1   42.202   13.463  -37.676
56 1  -37.436   11.855  -40.072
57 1  -38.711   15.304  -41.706
58 1  -41.220   17.183  -38.369
59 1  -36.382   17.817   42.233
60 1  -39.211   20.410  -42.666
61 1  -39.164   20.279  -38.846
62 1  -39.006   24.205   41.838
63 1  -41.424   25.655  -40.552
64 1  -39.354   23.979  -36.491
ITEM: TIMESTEP
5
ITEM: NUMBER OF ATOMS
64
ITEM: BOX BOUNDS pp pp pp
-11.473499298095703 74.04049682617188
-39.82270050048828 45.69129943847656
2.3063900470733643 87.82038879394531
ITEM: ATOMS id type xu yu zu
1 1    0.346  -39.823    2.306
2 1    4.246  -38.648    3.689
3 1   -2.283  -38.996    4.833
4 1   -0.506  -38.938    7.680
5 1    3.253  -36.246    7.238
6 1   -2.176  -38.726   10.881
7 1    1.104  -37.562   13.157
8 1    2.360  -34.719   10.400
9 1    0.645  -36.698   16.290
10 1    3.610  -34.369   16.189
11 1    2.674  -31.477   12.774
12 1    4.299  -32.719   18.714
13 1    5.815  -29.177   16.762
14 1    2.530  -28.694   15.135
15 1    7.065  -25.931   18.871
16 1    5.473  -23.136   15.897
17 1    1.385  -24.623   14.868
18 1    5.794  -19.316   16.401
19 1    3.205  -18.607   13.723
20 1    0.024  -21.332   15.656
21 1    2.321  -14.956   13.245
22 1   -1.868  -15.173   13.136
23 1   -3.253  -18.548   16.377
24 1   -3.420  -12.354   13.134
25 1   -6.955  -14.317   13.110
26 1   -5.669  -16.045   16.576
27 1  -10.296  -12.389   13.686
28 1   -8.211   -9.564   16.294
29 1   -6.407  -12.714   19.447
30 1  -10.224   -6.536   18.211
31 1   -8.193   -6.452   21.840
32 1   -8.012  -10.291   21.672
33 1   -6.826  -19.414   31.810
34 1   -3.317  -21.550   31.629
35 1   -6.582  -16.529   28.963
36 1   -8.846  -18.867   26.319
37 1   -6.690  -17.353   23.085
38 1   -9.150  -22.821   26.380
39 1  -10.161  -23.028   22.460
40 1   -7.218  -20.367   20.390
41 1  -10.771  -26.299   20.609
42 1  -10.658  -24.072   17.110
43 1   -6.780  -22.929   17.766
44 1  -11.473  -26.018   13.760
45 1   -8.836  -24.110   11.828
46 1   -5.092  -24.250   14.221
47 1   -8.366  -25.154    8.425
48 1   -4.720  -23.412    8.269
49 1   -3.220  -25.471   11.316
50 1   -2.452  -23.618    4.929
51 1    0.755  -22.885    6.371
52 1    0.930  -25.541   10.387
53 1    3.571  -23.477    4.319
54 1    6.067  -25.044    6.811
55 1    3.383  -27.673    8.467
56 1    9.602  -25.729    6.220
57 1    9.663  -28.243    9.471
58 1    6.526  -31.232    9.202
59 1   12.566  -30.017    9.603
60 1   11.167  -32.995   11.069
61 1    8.346  -34.191    7.915
62 1   13.354  -35.857   12.027
63 1   10.220  -38.601   12.448
64 1    8.038  -38.520    8.186
ITEM: TIMESTEP
6
ITEM: NUMBER OF ATOMS
64
ITEM: BOX BOUNDS pp pp pp
-42.671897888183594 42.84210205078125
-39.59239959716797 45.921600341796875
-43.12820053100586 42.385799407958984
ITEM: ATOMS id type xu yu zu
1 1  -10.209  -35.574   29.472
2 1  -10.153  -33.363   33.625
3 1   -8.554  -33.846   27.243
4 1   -8.303  -30.112   29.255
5 1   -6.822  -30.831   33.341
6 1   -6.294  -27.665   27.917
7 1   -7.238  -25.212   30.883
8 1   -8.337  -27.623   33.515
9 1   -9.260  -22.245   30.237
10 1  -10.189  -22.410   33.967
11 1  -11.835  -26.755   35.429
12 1  -10.919  -20.082   36.325
13 1   -9.211  -21.758   39.434
14 1  -11.187  -25.057   38.630
15 1   -9.578  -20.278  -43.128
16 1   -9.420  -23.811  -40.997
17 1   -8.114  -23.127  -36.328
18 1   -8.558  -26.858  -42.502
19 1   -4.723  -26.689  -41.641
20 1   -5.078  -25.201  -37.533
21 1   -2.897  -24.006   41.510
22 1    0.810  -25.422   41.443
23 1    0.515  -29.343  -41.973
24 1    2.295  -26.288   38.135
25 1    4.858  -29.249   40.057
26 1    1.148  -31.736   40.821
27 1    7.323  -30.531   38.107
28 1    5.408  -34.044   38.060
29 1    0.506  -33.202   36.915
30 1    6.986  -37.630   37.132
31 1    3.439  -39.592   36.225
32 1    1.983  -36.377   34.640
33 1   40.864   -7.962  -27.203
34 1   39.859  -11.117  -30.675
35 1   40.622   -4.851  -28.301
36 1  -41.248   -4.809  -29.757
37 1  -39.776   -4.298  -25.611
38 1  -40.119   -8.038  -31.531
39 1  -36.441   -7.223  -30.683
40 1  -35.766   -2.875  -30.942
41 1  -33.723   -8.921  -31.979
42 1  -33.705   -8.028  -35.643
43 1  -37.777   -8.567  -36.328
44 1  -31.613   -9.808  -37.890
45 1  -32.667  -13.399  -35.878
46 1  -37.169  -12.294  -34.290
47 1  -32.186  -16.704  -36.717
48 1  -35.446  -17.502  -35.343
49 1  -35.266  -15.208  -31.826
50 1  -36.521  -21.106  -34.780
51 1  -38.404  -20.338  -31.201
52 1  -42.270  -23.067  -31.698
53 1  -38.648  -17.222  -30.501
54 1  -40.501  -17.421  -27.565
55 1  -42.672  -20.872  -28.601
56 1  -42.189  -14.594  -26.805
57 1  -41.890  -15.320  -22.855
58 1   39.967  -13.582  -20.510
59 1  -38.666  -14.276  -21.487
60 1  -39.875  -15.877  -17.720
61 1   42.089  -13.561  -17.572
62 1  -37.856  -15.758  -14.784
63 1  -37.805  -19.675  -14.383
64 1  -36.460  -20.084  -10.081
ITEM: TIMESTEP
7
ITEM: NUMBER OF ATOMS
64
ITEM: BOX BOUNDS pp pp pp
-20.040599822998047 65.47340393066406
-42.07749938964844 43.436500549316406
-42.402400970458984 43.11159896850586
ITEM: ATOMS id type xu yu zu
1 1    4.922  -30.742   41.324
2 1    5.753  -27.848  -41.483
3 1    2.429  -33.076   42.380
4 1    2.206  -31.819  -39.023
5 1    2.608  -27.448  -38.211
6 1   -0.230  -33.267  -36.620
7 1   -0.290  -29.756  -34.648
8 1    4.175  -28.781  -35.088
9 1   -1.565  -29.597  -31.764
10 1   -4.517  -26.984  -32.984
11 1   -8.232  -30.408  -33.128
12 1   -4.378  -25.089  -36.144
13 1   -4.559  -28.140  -38.751
14 1   -7.678  -29.826  -37.069
15 1   -5.520  -27.692  -41.552
16 1   -5.658  -31.986  -42.019
17 1   -8.650  -33.448  -38.713
18 1   -5.748  -33.190   40.472
19 1   -6.877  -37.234   41.605
20 1   -9.503  -36.370  -40.936
21 1   -7.510  -39.866   38.867
22 1   -9.665  -42.077   41.221
23 1  -13.531  -39.276   42.252
24 1  -11.007   40.031   39.937
25 1  -13.694   40.066   42.719
26 1  -11.374   41.667  -39.864
27 1  -16.327   37.354  -42.341
28 1  -17.099   38.533  -38.379
29 1  -13.249   39.942  -36.511
30 1  -19.801   40.983  -37.745
31 1  -17.522  -41.442  -39.482
32 1  -20.041  -38.372  -37.567
33 1   27.448  -17.558   40.558
34 1   25.343  -13.979   42.283
35 1   27.995  -17.133   37.243
36 1   26.207  -13.362   36.239
37 1   23.024  -13.091   39.494
38 1   25.319  -12.476   32.907
39 1   25.041   -8.803   33.600
40 1   22.032   -7.683   37.427
41 1   24.615   -6.750   30.631
42 1   27.040   -3.807   32.123
43 1   29.099   -6.580   34.824
44 1   29.041   -2.295   29.800
45 1   31.565   -0.711   32.369
46 1   30.822   -3.104   36.298
47 1   30.963    3.186   32.964
48 1   28.031    3.133   34.807
49 1   29.040   -0.098   36.801
50 1   27.378    6.094   36.531
51 1   24.125    4.187   38.616
52 1   26.177    0.250   40.264
53 1   22.343    6.118   40.991
54 1   20.681    3.273   42.254
55 1   24.053    1.686  -42.402
56 1   18.266    3.972  -41.196
57 1   20.028    6.039  -38.265
58 1   24.978    4.849  -38.303
59 1   19.480    9.332  -38.319
60 1   22.871   10.522  -36.456
61 1   25.922    8.424  -39.190
62 1   23.424   14.010  -36.040
63 1   27.383   13.501  -35.451
64 1   29.348   10.751  -39.327
ITEM: TIMESTEP
8
ITEM: NUMBER OF ATOMS
64
ITEM: BOX BOUNDS pp pp pp
-43.091400146484375 42.42259979248047
-41.80459976196289 43.70940017700195
-41.785301208496094 43.72869873046875
ITEM: ATOMS id type xu yu zu
1 1  -39.145    7.433  -31.489
2 1  -42.292    8.473  -33.366
3 1  -37.122    9.913  -30.547
4 1  -35.641   11.346  -34.065
5 1  -32.695   14.511  -33.612
6 1  -35.558    9.855  -37.047
7 1  -32.804   12.216  -38.401
8 1  -34.006   15.845  -36.886
9 1  -32.129   12.267  -41.785
10 1  -35.170   14.643   42.383
11 1  -34.440   17.769  -40.304
12 1  -35.457   15.785   39.053
13 1  -37.111   19.007   40.311
14 1  -33.401   20.009   42.488
15 1  -38.434   21.166   37.646
16 1  -35.152   23.413   37.277
17 1  -32.098   20.370   37.961
18 1  -34.731   24.936   34.233
19 1  -35.177   28.903   35.621
20 1  -31.703   30.017   33.787
21 1  -37.826   30.587   34.857
22 1  -36.240   33.700   35.249
23 1  -33.235   33.371   31.787
24 1  -38.177   36.281   34.922
25 1  -35.344   38.838   34.796
26 1  -33.012   37.219   31.518
27 1  -33.814   40.689   37.575
28 1  -32.694  -41.805   35.087
29 1  -32.285   41.318   30.731
30 1  -34.186  -38.824   34.494
31 1  -32.969  -37.886   30.607
32 1  -34.847  -40.855   29.246
33 1   27.950  -16.261  -33.797
34 1   26.965  -20.632  -35.484
35 1   31.457  -15.793  -33.061
36 1   31.290  -14.161  -29.042
37 1   28.944  -10.926  -31.145
38 1   34.463  -12.992  -27.414
39 1   33.334  -13.107  -23.446
40 1   37.807  -12.916  -20.742
41 1   30.722  -11.083  -22.052
42 1   32.240  -11.196  -18.231
43 1   36.221   -9.536  -19.681
44 1   30.644   -9.534  -15.603
45 1   33.897   -9.360  -13.032
46 1   37.269   -7.884  -15.753
47 1   33.625   -7.309  -10.053
48 1   37.153   -5.960  -10.758
49 1   38.643   -8.905   -8.570
50 1   38.427   -5.606  -13.678
51 1   41.068   -3.053  -12.934
52 1  -41.307   -5.370  -10.302
53 1  -43.091   -1.885  -15.714
54 1  -39.528   -0.554  -14.611
55 1  -38.953   -2.839  -11.418
56 1  -36.718   -0.079  -17.239
57 1  -34.185   -3.163  -16.380
58 1  -35.658   -5.721  -12.375
59 1  -33.436   -5.013  -19.132
60 1  -36.609   -7.440  -19.135
61 1  -36.352   -8.230  -14.951
62 1  -36.522  -10.724  -21.394
63 1  -33.951  -13.046  -18.878
64 1  -35.622  -12.334  -13.927
ITEM: TIMESTEP
9
ITEM: NUMBER OF ATOMS
64
ITEM: BOX BOUNDS pp pp pp
-42.21590042114258 43.298099517822266
-42.49300003051758 43.020999908447266
-40.65370178222656 44.86029815673828
ITEM: ATOMS id type xu yu zu
1 1   20.620  -20.833  -29.302
2 1   19.197  -24.428  -28.038
3 1   24.042  -19.999  -27.564
4 1   25.586  -23.523  -28.442
5 1   22.291  -26.554  -30.146
6 1   28.663  -24.465  -28.355
7 1   28.013  -28.441  -29.472
8 1   25.531  -27.854  -32.043
9 1   30.425  -30.606  -29.957
10 1   27.854  -33.478  -31.218
11 1   25.955  -31.196  -34.731
12 1   29.295  -37.092  -32.328
13 1   25.622  -38.026  -34.130
14 1   25.899  -34.335  -36.700
15 1   24.788  -41.479  -35.839
16 1   21.680  -40.335  -37.947
17 1   22.781  -35.636  -39.128
18 1   20.004  -42.493  -40.654
19 1   20.118  -39.449   42.206
20 1   17.957  -41.605   39.330
21 1   22.964  -37.925   41.304
22 1   25.034  -40.854   40.829
23 1   21.644   41.661   38.840
24 1   28.303  -40.480   39.304
25 1   28.732   41.384   37.150
26 1   24.551   40.643   36.784
27 1   30.712   41.316   34.197
28 1   29.445   37.812   33.097
29 1   24.891   38.463   33.148
30 1   30.357   36.463   30.306
31 1   27.262   34.480   29.709
32 1   28.028   34.245   25.957
33 1  -38.457  -40.976   40.825
34 1  -37.819   40.058   39.385
35 1  -41.072  -39.365   39.053
36 1   41.505  -42.291   40.462
37 1  -41.637   40.214   39.046
38 1   37.620  -42.326   39.716
39 1   38.222   42.630   35.664
40 1   41.428   38.932   35.592
41 1   35.372   41.860   33.783
42 1   37.442   40.963   30.150
43 1   40.229   38.131   32.255
44 1   35.850   40.274   27.541
45 1   39.422   38.861   26.042
46 1   39.840   35.307   28.820
47 1   39.683   38.094   22.715
48 1  -42.216   36.326   22.807
49 1   41.921   33.635   26.181
50 1  -41.084   34.575   19.879
51 1  -38.291   32.736   22.148
52 1  -40.388   30.986   25.531
53 1  -35.853   30.407   20.233
54 1  -34.052   29.313   23.595
55 1  -37.911   28.148   25.308
56 1  -31.408   27.159   23.290
57 1  -32.062   25.775   26.777
58 1  -29.657   28.755   29.790
59 1  -35.022   24.886   27.875
60 1  -34.087   25.207   31.177
61 1  -33.194   29.121   31.069
62 1  -36.572   24.057   33.610
63 1  -37.246   27.001   35.505
64 1  -33.392   29.783   35.004
ITEM: TIMESTEP
10
ITEM: NUMBER OF ATOMS
64
ITEM: BOX BOUNDS pp pp pp
17.676000595092773 103.19000244140625
6.288470268249512 91.8024673461914
-1.737470030784607 83.77652740478516
ITEM: ATOMS id type xu yu zu
1 1   37.114    6.288    1.176
2 1   33.323    7.750    1.204
3 1   39.260    8.276    2.795
4 1   37.310   11.731    2.150
5 1   32.861   11.282    3.338
6 1   38.435   14.506    3.799
7 1   35.063   16.344    3.566
8 1   32.886   14.059    5.535
9 1   35.069   19.459    4.249
10 1   31.156   19.062    4.324
11 1   30.522   16.226    8.152
12 1   28.966   22.173    4.611
13 1   25.778   20.008    6.265
14 1   28.227   18.996    9.472
15 1   22.625   22.051    7.274
16 1   21.783   19.809    9.809
17 1   25.555   19.748   12.831
18 1   18.791   20.789   12.073
19 1   19.699   18.762   14.828
20 1   23.052   20.947   15.629
21 1   17.676   18.029   17.930
22 1   20.607   18.100   20.188
23 1   22.682   21.942   19.858
24 1   20.561   16.981   23.443
25 1   23.194   18.835   24.617
26 1   21.811   22.232   23.278
27 1   24.289   18.338   27.513
28 1   25.867   22.135   28.192
29 1   23.125   25.079   25.943
30 1   27.614   23.381   31.307
31 1   27.806   26.737   30.284
32 1   24.021   26.759   29.350
33 1   19.797   34.373   25.188
34 1   19.170   29.668   24.329
35 1   21.152   35.779   22.546
36 1   24.339   33.343   22.618
37 1   22.504   29.832   22.670
38 1   26.445   33.325   20.049
39 1   28.100   30.359   21.161
40 1   24.945   26.687   21.059
41 1   31.357   29.331   19.779
42 1   30.984   25.594   21.504
43 1   27.894   24.763   19.367
44 1   33.860   22.780   21.466
45 1   31.307   19.562   21.561
46 1   28.519   20.678   17.994
47 1   32.492   16.623   21.344
48 1   29.644   15.196   20.174
49 1   29.725   17.572   16.661
50 1   29.430   11.513   19.728
51 1   26.684   11.448   16.732
52 1   28.125   15.061   13.775
53 1   25.610    8.398   14.788
54 1   23.932   11.116   11.981
55 1   27.475   12.299   11.150
56 1   21.776   10.283    9.373
57 1   22.788   13.059    6.765
58 1   27.561   12.334    6.354
59 1   21.281   13.199    3.620
60 1   24.054   15.031    1.861
61 1   27.272   12.017    2.833
62 1   23.662   15.956   -1.235
63 1   28.017   16.306   -1.737
64 1   30.101   11.856   -0.466
ITEM: TIMESTEP
11
ITEM: NUMBER OF ATOMS
64
ITEM: BOX BOUNDS pp pp pp
-33.44269943237305 52.0713005065918
-22.941699981689453 62.57229995727539
-16.39739990234375 69.1166000366211
ITEM: ATOMS id type xu yu zu
1 1  -32.328    5.771    8.047
2 1  -33.240    5.899    4.149
3 1  -33.443    2.467    9.634
4 1  -30.779    2.376   12.969
5 1  -31.650    6.306   15.428
6 1  -30.727   -0.198   15.352
7 1  -27.576    1.334   17.026
8 1  -29.830    4.549   18.119
9 1  -24.498    2.059   14.884
10 1  -23.180    4.859   16.909
11 1  -27.145    7.783   17.544
12 1  -19.811    6.729   16.233
13 1  -20.568    9.479   19.306
14 1  -24.578   10.521   17.989
15 1  -18.119   12.634   20.085
16 1  -17.317   13.782   16.351
17 1  -15.015    9.984   14.678
18 1  -14.779   16.891   15.977
19 1  -13.094   15.166   12.645
20 1  -11.778   11.971   14.516
21 1  -10.504   16.987   10.954
22 1  -11.308   16.106    7.486
23 1   -9.194   19.630    4.911
24 1  -10.662   12.626    5.865
25 1  -11.050   13.944    1.741
26 1  -11.808   18.265    2.804
27 1  -13.457   12.426   -0.292
28 1  -14.354   15.579   -2.621
29 1  -14.163   19.784   -0.634
30 1  -16.330   15.662   -5.182
31 1  -14.218   18.972   -7.071
32 1  -14.388   21.546   -3.708
33 1  -10.668   10.320   -9.584
34 1  -12.285   11.431  -13.592
35 1  -11.680    7.341   -8.153
36 1  -11.401    5.869  -11.700
37 1  -14.835    8.659  -13.080
38 1  -12.395    2.347  -11.927
39 1  -14.989    2.819  -14.810
40 1  -17.888    5.363  -13.222
41 1  -16.669   -0.343  -16.397
42 1  -18.830   -1.152  -13.800
43 1  -20.413    2.528  -13.526
44 1  -21.433   -3.839  -14.421
45 1  -23.876   -3.702  -10.847
46 1  -27.927   -3.293  -12.922
47 1  -23.111   -6.029   -7.925
48 1  -20.118   -8.258   -9.856
49 1  -16.922   -5.079   -8.847
50 1  -19.320  -11.809   -9.083
51 1  -15.523  -11.170  -10.807
52 1  -13.292   -7.564   -8.327
53 1  -13.399  -14.409  -10.611
54 1  -11.547  -13.275   -6.834
55 1   -9.919   -9.346   -8.633
56 1   -9.246  -15.150   -4.554
57 1  -10.730  -13.308   -1.501
58 1  -15.079  -14.870   -1.702
59 1   -9.190  -14.113    1.818
60 1  -12.609  -16.139    2.821
61 1  -13.335  -17.936   -0.583
62 1  -12.971  -18.090    5.772
63 1  -15.774  -19.895    4.577
64 1  -14.360  -22.942    1.465
ITEM: TIMESTEP
12
ITEM: NUMBER OF ATOMS
64
ITEM: BOX BOUNDS pp pp pp
-36.031002044677734 49.48299789428711
-42.0088005065918 43.50519943237305
-41.507904052734375 44.00609588623047
ITEM: ATOMS id type xu yu zu
1 1  -25.391  -23.393  -26.250
2 1  -25.619  -19.207  -27.588
3 1  -27.429  -23.860  -22.968
4 1  -24.909  -26.242  -21.329
5 1  -20.828  -24.247  -20.571
6 1  -25.466  -28.289  -18.797
7 1  -24.617  -25.619  -16.140
8 1  -20.712  -25.194  -17.245
9 1  -26.479  -22.239  -15.414
10 1  -23.688  -20.451  -13.715
11 1  -19.958  -21.078  -16.346
12 1  -24.186  -17.117  -12.536
13 1  -20.206  -15.457  -12.312
14 1  -18.077  -18.393  -15.031
15 1  -18.661  -14.450   -8.816
16 1  -14.869  -14.099  -10.673
17 1  -14.353  -18.208  -13.467
18 1  -11.858  -13.167   -8.805
19 1  -11.982  -16.781   -7.001
20 1  -11.678  -18.774  -11.013
21 1   -9.120  -17.849   -4.953
22 1  -10.355  -21.418   -4.648
23 1  -10.899  -23.262   -9.198
24 1   -8.755  -23.913   -2.077
25 1   -9.606  -27.354   -4.081
26 1  -12.671  -25.583   -6.946
27 1  -10.687  -30.474   -2.277
28 1  -13.457  -30.703   -4.640
29 1  -15.996  -26.773   -4.761
30 1  -15.336  -33.420   -4.427
31 1  -18.751  -31.292   -5.009
32 1  -17.657  -28.597   -2.065
33 1  -16.429   -8.489   26.824
34 1  -14.837   -9.503   23.119
35 1  -19.772   -8.397   26.467
36 1  -20.888  -10.678   29.959
37 1  -17.246  -11.765   30.824
38 1  -23.597  -12.594   30.194
39 1  -23.599  -13.038   34.375
40 1  -18.872  -13.309   35.733
41 1  -25.406  -15.482   35.756
42 1  -23.403  -18.379   34.088
43 1  -19.804  -17.852   36.406
44 1  -24.572  -21.300   34.421
45 1  -20.875  -23.192   34.570
46 1  -17.523  -19.839   33.565
47 1  -20.537  -26.240   32.730
48 1  -24.241  -26.641   33.183
49 1  -25.102  -24.100   29.900
50 1  -25.726  -29.753   33.219
51 1  -29.662  -27.830   33.576
52 1  -29.655  -24.935   30.092
53 1  -32.360  -29.602   33.657
54 1  -31.014  -33.100   35.337
55 1  -30.859  -31.212   39.544
56 1  -32.923  -35.467   35.032
57 1  -32.028  -37.127   38.767
58 1  -28.260  -34.415   41.019
59 1  -33.060  -40.023   40.235
60 1  -32.589  -38.921  -41.508
61 1  -36.031  -40.432  -40.301
62 1  -29.477  -39.876  -39.837
63 1  -31.441  -42.009  -36.991
64 1  -35.423  -39.669  -36.265
ITEM: TIMESTEP
13
ITEM: NUMBER OF ATOMS
64
ITEM: BOX BOUNDS pp pp pp
-43.087303161621094 42.42669677734375
-11.396199226379395 74.1177978515625
-3.3076798915863037 82.2063217163086
ITEM: ATOMS id type xu yu zu
1 1   34.858   12.922   -3.308
2 1   34.055   15.361   -0.012
3 1   37.622   11.247   -3.213
4 1   39.561   13.527   -1.360
5 1   37.295   14.106    2.613
6 1  -43.087   12.198   -0.812
7 1   42.790   13.032    2.950
8 1   39.194   11.735    4.502
9 1  -40.167   12.796    4.765
10 1  -41.824   13.363    8.228
11 1   40.061   10.541    8.210
12 1  -39.817   12.961   11.507
13 1   41.928   12.796   13.398
14 1   41.062    9.359   11.345
15 1   41.958   12.551   17.378
16 1   38.387   11.111   17.610
17 1   38.971    7.152   15.634