ITEM: TIMESTEP
0
ITEM: NUMBER OF ATOMS
64
ITEM: BOX BOUNDS pp pp pp
-23.243101119995117 62.270896911621094
-41.99250030517578 43.52149963378906
-41.78329849243164 43.7307014465332
ITEM: ATOMS id type xu yu zu
1 1  -18.745  -34.076   -4.894
2 1  -16.036  -35.365   -1.825
3 1  -18.281  -35.444   -8.222
4 1  -20.369  -32.838   -9.828
5 1  -21.110  -29.600   -6.607
6 1  -18.816  -30.946  -12.680
7 1  -18.959  -28.019  -10.417
8 1  -23.243  -28.291   -9.625
9 1  -17.550  -24.778  -11.727
10 1  -14.917  -26.448  -13.293
11 1  -12.872  -23.141  -15.583
12 1  -12.539  -28.268  -10.802
13 1   -9.490  -27.599  -12.982
14 1   -9.718  -23.128  -13.270
15 1   -5.941  -28.448  -11.870
16 1   -3.959  -26.540  -14.575
17 1   -6.167  -22.894  -13.770
18 1   -0.452  -25.772  -14.321
19 1    1.210  -29.386  -15.080
20 1   -0.984  -32.453  -11.840
21 1    0.748  -30.921  -18.455
22 1    2.481  -34.578  -17.314
23 1    0.668  -35.400  -13.584
24 1    2.106  -37.647  -19.882
25 1    2.334  -40.569  -17.400
26 1    0.788   42.073  -20.381
27 1    0.526  -40.784  -14.223
28 1   -2.920  -41.993  -15.826
29 1   -4.255  -38.169  -18.336
30 1   -5.956   42.402  -13.512
31 1   -7.267  -39.642  -13.438
32 1   -7.579  -39.149  -17.251
33 1   13.717   -0.723  -23.468
34 1    9.452   -0.041  -23.499
35 1   15.388   -0.629  -26.241
36 1   12.142   -2.782  -28.138
37 1    9.037    0.192  -27.327
38 1   12.534   -4.234  -31.698
39 1    8.645   -2.963  -32.752
40 1    9.375    1.632  -31.231
41 1    7.086   -3.520  -36.264
42 1    4.487   -0.710  -36.098
43 1    7.236    1.897  -34.387
44 1    2.494    0.482  -39.015
45 1    3.368    4.073  -37.729
46 1    1.475    4.633  -34.674
47 1    2.916    7.131  -40.089
48 1    6.792    8.037  -39.773
49 1    9.024    5.464   42.770
50 1    7.910   11.530  -40.400
51 1   12.092   10.768  -41.250
52 1   12.707    6.544  -39.417
53 1   14.672   12.795  -41.482
54 1   17.014   10.469   41.692
55 1   15.578    6.819  -41.783
56 1   20.831   10.966   41.236
57 1   21.130    9.758   37.237
58 1   19.300   12.893   35.051
59 1   20.033    6.860   36.355
60 1   21.489    7.247   32.566
61 1   25.739    7.963   33.688
62 1   21.079    4.886   29.929
63 1   23.659    6.137   27.198
64 1   27.277    7.527   29.674
ITEM: TIMESTEP
1
ITEM: NUMBER OF ATOMS
64
ITEM: BOX BOUNDS pp pp pp
-32.32780075073242 53.18619918823242
-42.25019836425781 43.26380157470703
-42.57619857788086 42.937801361083984
ITEM: ATOMS id type xu yu zu
1 1   10.243  -26.337   16.068
2 1    9.367  -21.953   16.404
3 1    8.265  -28.040   17.751
4 1   10.334  -28.533   21.417
5 1    8.027  -32.178   22.872
6 1    9.981  -26.052   23.633
7 1   10.641  -28.768   27.054
8 1    6.602  -29.961   26.130
9 1   10.563  -27.535   29.889
10 1   11.959  -30.617   31.751
11 1   15.072  -32.701   29.102
12 1   12.739  -30.423   35.120
13 1   15.622  -33.167   34.779
14 1   18.497  -32.533   30.906
15 1   18.318  -33.802   37.910
16 1   21.064  -34.848   35.887
17 1   22.541  -31.434   35.141
18 1   23.386  -37.341   36.759
19 1   23.504  -36.382   40.152
20 1   21.951  -40.775   41.879
21 1   26.253  -35.406   41.826
22 1   25.267  -36.686  -39.845
23 1   23.444  -40.581  -40.378
24 1   27.817  -36.496  -37.174
25 1   29.291  -40.406  -37.237
26 1   25.197  -42.250  -35.675
27 1   32.435  -41.150  -35.574
28 1   32.985   41.339  -38.461
29 1   32.876  -41.905  -42.576
30 1   36.097   39.178  -38.266
31 1   35.562   37.432  -41.525
32 1   35.619   41.289   42.004
33 1   -4.144   31.197   42.003
34 1   -1.765   34.636  -40.835
35 1   -4.268   28.065  -41.813
36 1   -2.877   29.735  -38.976
37 1   -6.206   32.184  -38.591
38 1   -1.855   28.284  -35.991
39 1   -2.257   31.567  -33.295
40 1   -6.671   32.312  -34.112
41 1   -1.395   31.736  -29.920
42 1   -2.850   35.180  -29.081
43 1   -6.265   34.268  -30.831
44 1   -3.170   36.479  -25.543
45 1   -6.596   38.759  -26.537
46 1   -9.135   35.437  -27.993
47 1   -8.052   40.617  -24.185
48 1  -11.237   41.088  -25.831
49 1  -11.809   38.278  -29.198
50 1  -14.457   41.939  -24.143
51 1  -16.314   40.322  -26.970
52 1  -14.512   36.888  -26.582
53 1  -19.625   40.369  -26.996
54 1  -19.712   42.170  -23.692
55 1  -18.680   38.743  -21.833
56 1  -22.490  -41.131  -22.257
57 1  -24.498   40.992  -21.254
58 1  -21.758   38.979  -18.433
59 1  -28.107   41.085  -20.060
60 1  -27.299  -41.562  -17.397
61 1  -24.336   41.749  -16.153
62 1  -29.992  -40.218  -15.022
63 1  -31.205   42.041  -14.135
64 1  -32.328   39.627  -18.459
ITEM: TIMESTEP
2
ITEM: NUMBER OF ATOMS
64
ITEM: BOX BOUNDS pp pp pp
-6.851590156555176 78.66240692138672
-12.992300033569336 72.52169799804688
-27.86629867553711 57.647701263427734
ITEM: ATOMS id type xu yu zu
1 1   23.755   -9.263  -27.866
2 1   20.967   -6.031  -27.565
3 1   23.228  -12.050  -26.120
4 1   23.467  -10.751  -22.639
5 1   27.720   -8.710  -22.916
6 1   23.169  -12.992  -19.878
7 1   23.536  -10.267  -17.145
8 1   26.869   -8.147  -19.151
9 1   23.317  -10.728  -13.860
10 1   23.174   -6.981  -13.024
11 1   23.077   -4.849  -17.163
12 1   21.166   -5.480  -10.357
13 1   22.630   -7.923   -7.541
14 1   27.040   -7.118   -6.238
15 1   20.752   -8.483   -4.563
16 1   22.152   -5.890   -2.825
17 1   26.218   -7.586   -2.855
18 1   20.702   -5.253    0.649
19 1   21.599   -1.827    0.481
20 1   22.384   -0.798   -4.299
21 1   19.777    0.660    1.995
22 1   20.812    3.454   -1.016
23 1   19.618    1.563   -4.988
24 1   19.374    6.432   -0.562
25 1   21.736    8.005   -2.724
26 1   21.706    4.727   -5.573
27 1   20.581   11.412   -3.571
28 1   17.483    9.960   -6.073
29 1   19.769    6.850   -8.601
30 1   15.354   12.061   -7.654
31 1   13.086    9.331   -8.695
32 1   16.208    6.533   -9.165
33 1   -6.852   36.013  -13.466
34 1   -6.655   33.899   -9.732
35 1   -3.714   36.924  -14.894
36 1   -2.649   39.275  -11.774
37 1   -3.315   35.829   -9.296
38 1    1.096   40.598  -11.020
39 1    2.485   38.141   -9.033
40 1    0.334   34.092  -10.226
41 1    6.330   37.467   -8.608
42 1    5.774   33.706   -7.952
43 1    3.635   32.845  -11.384
44 1    7.900   31.435   -6.869
45 1    5.869   28.123   -8.737
46 1    5.945   29.733  -13.071
47 1    7.291   24.776   -8.333
48 1    6.676   23.285  -12.430
49 1    7.069   26.882  -15.816
50 1    8.335   20.091  -13.756
51 1    9.027   21.351  -17.250
52 1   10.071   24.603  -16.110
53 1   11.030   19.052  -19.848
54 1   12.076   22.027  -22.333
55 1   12.718   24.907  -18.870
56 1   14.615   21.524  -24.546
57 1   16.831   24.086  -22.468
58 1   16.036   22.558  -18.145
59 1   20.383   24.513  -23.391
60 1   21.199   26.439  -19.952
61 1   19.556   23.526  -17.621
62 1   24.729   27.435  -19.226
63 1   25.632   25.977  -22.852
64 1   23.074   28.172  -26.303
ITEM: TIMESTEP
3
ITEM: NUMBER OF ATOMS
64
ITEM: BOX BOUNDS pp pp pp
-34.0629997253418 51.45100021362305
3.7194700241088867 89.23346710205078
-21.903400421142578 63.610599517822266
ITEM: ATOMS id type xu yu zu
1 1  -13.229   25.337  -10.181
2 1  -14.578   21.957   -8.548
3 1  -12.215   24.856  -13.797
4 1  -12.068   21.327  -13.146
5 1  -16.323   20.581  -12.112
6 1  -10.879   19.451  -15.837
7 1  -12.240   16.251  -14.964
8 1  -16.062   17.450  -14.270
9 1  -12.023   13.564  -16.807
10 1  -15.293   11.587  -15.706
11 1  -18.588   14.376  -15.740
12 1  -16.082    8.549  -17.887
13 1  -19.493    8.199  -16.663
14 1  -21.759   12.344  -16.717
15 1  -21.874    5.665  -18.431
16 1  -24.683    6.647  -16.037
17 1  -24.626   10.194  -17.488
18 1  -28.185    5.142  -16.227
19 1  -29.183    8.041  -14.506
20 1  -26.247   11.981  -13.908
21 1  -32.448    9.122  -14.611
22 1  -31.129   12.470  -16.279
23 1  -29.264   14.317  -13.210
24 1  -33.257   14.852  -17.666
25 1  -31.126   15.890  -19.977
26 1  -33.950   17.511  -21.903
27 1  -28.095   17.790  -18.969
28 1  -29.541   21.270  -19.142
29 1  -34.063   20.352  -18.224
30 1  -27.873   24.258  -17.484
31 1  -30.653   26.788  -17.770
32 1  -33.541   23.979  -16.390
33 1   22.038    7.158   37.767
34 1   23.282   10.847   34.741
35 1   23.267    3.719   36.623
36 1   25.403    5.235   33.427
37 1   22.238    7.997   32.616
38 1   28.396    6.318   33.790
39 1   29.068    5.831   29.569
40 1   25.863    8.660   28.575
41 1   32.320    6.797   28.374
42 1   31.218    6.717   24.233
43 1   27.399    8.752   25.302
44 1   33.461    8.175   21.650
45 1   31.442    7.665   18.918
46 1   27.549    8.862   21.143
47 1   31.969    9.706   15.701
48 1   28.769   11.440   15.923
49 1   27.675   13.449   20.500
50 1   27.589   13.530   13.276
51 1   25.627   15.944   15.922
52 1   28.352   16.351   18.664
53 1   24.691   19.441   14.351
54 1   25.132   20.960   17.380
55 1   28.944   20.081   17.645
56 1   24.119   24.614   17.635
57 1   26.493   25.393   20.942
58 1   28.704   21.135   22.254
59 1   29.235   28.309   20.780
60 1   30.610   27.903   24.188
61 1   30.205   23.867   24.309
62 1   33.943   28.844   25.290
63 1   32.866   32.140   26.679
64 1   31.837   31.325   31.613
ITEM: TIMESTEP
4
ITEM: NUMBER OF ATOMS
64
ITEM: BOX BOUNDS pp pp pp
-41.45750045776367 44.05649948120117
-42.20359802246094 43.310401916503906
-26.81730079650879 58.69670104980469
ITEM: ATOMS id type xu yu zu
1 1   11.123  -22.428  -10.706
2 1    9.225  -21.518   -7.161
3 1   12.587  -25.366  -10.928
4 1   11.498  -26.844   -7.946
5 1   10.604  -31.442   -9.294
6 1   13.813  -26.619   -4.989
7 1   12.391  -29.382   -3.232
8 1   12.899  -31.428   -6.552
9 1   13.916  -30.581   -0.408
10 1   12.176  -34.387   -0.869
11 1    8.653  -33.592   -3.115
12 1   13.730  -37.018   -2.305
13 1   10.807  -39.536   -3.175
14 1    6.653  -36.821   -3.277
15 1   11.338  -41.156   -5.709
16 1    7.874  -42.204   -6.748
17 1    6.527  -37.982   -6.749
18 1    6.303   41.206   -5.143
19 1    7.418   38.012   -7.032
20 1    4.541   37.513  -10.823
21 1   10.367   36.573   -7.240
22 1    9.547   34.605  -10.718
23 1    7.082   38.018  -13.840
24 1   11.812   32.408  -11.886
25 1   11.553   32.932  -16.413
26 1    9.010   35.714  -16.133
27 1   14.308   33.694  -18.513
28 1   12.709   33.197  -21.704
29 1   11.234   28.389  -21.988
30 1   14.067   33.927  -24.521
31 1   11.330   33.662  -26.817
32 1   10.173   30.029  -25.046
33 1  -15.215   16.234    1.567
34 1  -13.306   15.018   -3.016
35 1  -12.868   16.898    3.769
36 1  -13.444   13.019    5.981
37 1  -17.585   14.205    7.150
38 1  -11.216   12.270    8.427
39 1  -12.992   12.888   11.564
40 1  -16.150   16.159   10.424
41 1  -14.593   10.422   14.188
42 1  -15.831   13.026   16.529
43 1  -17.900   15.058   13.431
44 1  -17.461   12.146   20.104
45 1  -19.434   15.550   20.675
46 1  -20.410   16.630   16.389
47 1  -22.685   15.904   23.000
48 1  -23.900   19.128   21.315
49 1  -24.145   18.324   16.316
50 1  -26.885   20.822   22.446
51 1  -27.226   22.714   19.186
52 1  -27.511   19.585   16.930
53 1  -30.077   24.793   18.879
54 1  -32.253   22.433   20.892
55 1  -30.921   19.028   18.687
56 1  -36.143   23.121   21.233
57 1  -36.849   19.757   22.073
58 1  -36.322   19.597   26.742
59 1  -39.783   18.483   21.390
60 1  -41.458   17.983   25.301
61 1  -39.969   21.120   26.871
62 1   40.309   17.337   25.660
63 1   40.273   14.738   28.044
64 1   41.338   11.158   25.210
ITEM: TIMESTEP
5
ITEM: NUMBER OF ATOMS
64
ITEM: BOX BOUNDS pp pp pp
-42.174903869628906 43.33909606933594
11.848699569702148 97.36270141601562
-37.34619903564453 48.16780090332031
ITEM: ATOMS id type xu yu zu
1 1   32.674   29.010    6.679
2 1   30.150   32.265    6.863
3 1   31.158   25.712    6.439
4 1   33.477   24.800    3.520
5 1   32.085   27.129   -0.775
6 1   36.586   24.923    3.938
7 1   38.049   24.308    0.453
8 1   35.601   27.737   -1.207
9 1   41.808   23.776   -0.073
10 1   41.748   19.863    0.789
11 1   37.410   18.515    3.222
12 1  -40.772   18.148    2.156
13 1  -42.120   18.463    5.959
14 1   39.449   16.200    5.730
15 1  -39.917   16.823    8.440
16 1  -41.860   13.688    9.171
17 1   39.698   15.441    9.300
18 1  -41.388   11.849   11.672
19 1  -38.689   13.981   13.049
20 1  -40.175   18.080   13.626
21 1  -37.436   12.763   15.591
22 1  -37.347   16.298   17.881
23 1  -41.313   18.369   17.154
24 1  -36.561   15.902   21.200
25 1  -39.194   18.581   23.313
26 1  -42.175   17.105   20.877
27 1  -39.208   18.303   27.087
28 1  -38.362   21.704   27.840
29 1  -38.751   24.148   23.472
30 1  -35.343   22.915   29.807
31 1  -35.978   26.816   30.944
32 1  -38.672   25.560   34.522
33 1  -34.646   20.138   -2.643
34 1  -31.912   18.587   -5.973
35 1  -37.471   22.485   -3.806
36 1  -38.053   20.952   -6.916
37 1  -40.138   17.910   -5.318
38 1  -39.764   22.523   -9.817
39 1  -40.139   19.011  -12.085
40 1   41.901   19.585  -14.828
41 1  -37.011   17.373  -13.785
42 1  -38.502   18.079  -16.940
43 1  -35.643   20.353  -18.365
44 1  -39.334   15.369  -19.077
45 1  -38.353   17.137  -21.973
46 1  -34.117   17.190  -20.833
47 1  -39.250   15.540  -25.047
48 1  -36.529   17.988  -27.307
49 1  -34.136   14.700  -29.579
50 1  -34.564   20.610  -25.701
51 1  -34.898   22.821  -28.470
52 1  -39.355   22.210  -28.734
53 1  -33.661   22.401  -31.333
54 1  -30.895   20.409  -29.933
55 1  -29.311   19.160  -33.170
56 1  -28.744   22.054  -27.835
57 1  -26.251   22.811  -30.062
58 1  -28.823   25.408  -33.316
59 1  -23.129   24.368  -28.777
60 1  -22.211   26.222  -31.611
61 1  -25.794   27.427  -33.047
62 1  -19.668   28.528  -31.304
63 1  -20.617   30.053  -35.069
64 1  -16.537   29.905  -37.346
ITEM: TIMESTEP
6
ITEM: NUMBER OF ATOMS
64
ITEM: BOX BOUNDS pp pp pp
-41.06340026855469 44.450599670410156
-42.100101470947266 43.41389846801758
3.52728009223938 89.0412826538086
ITEM: ATOMS id type xu yu zu
1 1   20.788  -40.206    6.433
2 1   18.543  -38.489    8.847
3 1   19.045  -42.100    3.527
4 1   15.173  -41.538    4.614
5 1   14.723  -37.210    5.218
6 1   13.920   42.608    7.471
7 1   10.630   42.674    6.064
8 1   11.594  -38.713    4.559
9 1    7.755   42.151    8.594
10 1    4.867   41.917    5.837
11 1    4.954   36.847    4.698
12 1    1.755   43.244    6.583
13 1    0.042   40.291    4.527
14 1    1.675   35.960    6.383
15 1   -3.054   40.481    4.365
16 1   -3.476  -40.984    4.413
17 1   -7.451  -41.079    4.310
18 1   -2.206  -39.454    7.133
19 1   -5.345  -37.278    7.578
20 1   -5.960  -34.218    3.682
21 1   -5.728  -35.249   10.135
22 1   -9.154  -34.640    9.248
23 1   -8.587  -32.383    5.479
24 1  -11.122  -32.564   11.410
25 1  -14.641  -31.707    9.486
26 1  -11.900  -30.319    6.053
27 1  -16.735  -29.407   11.139
28 1  -16.097  -26.330    8.429
29 1  -11.375  -26.483    7.578
30 1  -17.233  -23.195    8.966
31 1  -16.331  -21.445    5.592
32 1  -12.366  -22.368    5.818
33 1  -41.063   22.789   21.660
34 1  -37.893   19.212   20.970
35 1  -40.805   24.591   24.854
36 1  -36.755   25.194   24.279
37 1  -35.831   20.716   23.465
38 1  -34.460   26.683   26.689
39 1  -31.188   26.814   24.230
40 1  -28.625   23.345   25.888
41 1  -29.328   29.867   24.191
42 1  -26.852   29.202   20.805
43 1  -26.570   25.285   22.266
44 1  -23.825   30.767   20.512
45 1  -22.694   29.787   24.065
46 1  -22.729   25.679   23.523
47 1  -19.260   31.043   25.277
48 1  -18.362   27.682   27.899
49 1  -16.263   24.940   24.602
50 1  -15.814   27.897   30.635
51 1  -15.034   24.438   31.251
52 1  -14.714   23.721   27.568
53 1  -11.927   23.814   32.636
54 1  -12.012   20.408   30.947
55 1  -11.342   22.116   27.292
56 1   -9.783   17.253   32.312
57 1   -9.225   15.580   28.543
58 1   -8.875   19.114   25.762
59 1   -6.375   13.034   27.831
60 1   -3.706   16.057   26.340
61 1   -6.624   17.348   23.343
62 1   -0.188   14.945   25.043
63 1    1.150   18.309   24.894
64 1    1.416   19.625   20.701
ITEM: TIMESTEP
7
ITEM: NUMBER OF ATOMS
64
ITEM: BOX BOUNDS pp pp pp
-34.555599212646484 50.95840072631836
-42.01340103149414 43.5005989074707
-37.682098388671875 47.83190155029297
ITEM: ATOMS id type xu yu zu
1 1    7.566  -32.404   -7.614
2 1    8.009  -30.906  -11.995
3 1    5.178  -35.087   -7.351
4 1    2.603  -34.141  -10.618
5 1    5.194  -33.584  -14.347
6 1   -0.220  -36.467  -11.557
7 1   -0.637  -34.533  -15.095
8 1    3.060  -35.565  -16.732
9 1   -3.337  -35.530  -17.390
10 1   -0.880  -35.985  -20.633
11 1    2.666  -33.228  -20.178
12 1   -1.668  -36.997  -23.659
13 1    1.534  -38.070  -24.644
14 1    4.210  -34.517  -23.517
15 1    2.419  -38.710  -28.400
16 1    6.091  -37.285  -27.983
17 1    4.605  -33.250  -26.812
18 1    8.837  -37.383  -30.718
19 1    6.054  -36.717  -33.483
20 1    7.053  -38.714  -37.682
21 1    2.473  -36.647  -32.653
22 1    2.145  -40.672  -33.151
23 1    5.388  -42.013  -36.665
24 1    1.638   42.449  -30.380
25 1    3.684   39.096  -32.332
26 1    6.912   41.235  -33.708
27 1    4.274   36.390  -30.403
28 1    7.274   34.994  -32.922
29 1   10.442   38.632  -32.657
30 1    8.502   31.193  -32.645
31 1   11.946   31.840  -32.944
32 1   12.158   35.625  -31.209
33 1   -5.954   32.521   23.669
34 1   -6.274   28.260   21.942
35 1   -4.820   32.518   26.669
36 1   -1.679   29.734   25.930
37 1   -3.830   26.850   24.394
38 1    0.072   28.995   28.562
39 1   -2.629   25.994   29.446
40 1   -5.761   28.268   32.799
41 1   -4.487   24.895   26.556
42 1   -7.588   23.850   28.948
43 1   -8.635   28.129   30.384
44 1  -10.345   21.733   27.957
45 1  -13.498   24.444   28.528
46 1  -11.299   28.139   27.373
47 1  -16.587   24.017   26.611
48 1  -18.213   27.341   28.370
49 1  -18.351   31.007   24.404
50 1  -21.079   27.067   30.617
51 1  -22.014   31.044   30.646
52 1  -21.554   31.891   26.284
53 1  -24.660   31.920   32.054
54 1  -24.578   35.129   30.814
55 1  -25.142   33.697   27.052
56 1  -26.816   37.605   31.966
57 1  -27.315   39.528   28.437
58 1  -30.323   36.907   26.577
59 1  -28.616   42.579   27.954
60 1  -29.481   42.306   24.052
61 1  -32.443   39.593   24.643
62 1  -30.179  -40.141   22.641
63 1  -31.717  -41.447   19.499
64 1  -34.556  -38.375   17.968
ITEM: TIMESTEP
8
ITEM: NUMBER OF ATOMS
64
ITEM: BOX BOUNDS pp pp pp
-16.961400985717773 68.55259704589844
-42.665000915527344 42.8489990234375
-42.019500732421875 43.49449920654297
ITEM: ATOMS id type xu yu zu
1 1  -14.453   27.903  -23.323
2 1  -16.961   30.240  -25.956
3 1  -12.805   29.365  -20.182
4 1  -13.336   32.635  -21.309
5 1  -12.800   35.672  -17.319
6 1  -12.506   34.195  -24.101
7 1  -12.201   38.139  -22.543
8 1   -9.933   37.422  -18.762
9 1  -10.989   41.368  -24.268
10 1   -8.089   41.738  -21.185
11 1  -10.276   42.021  -17.211
12 1   -5.502  -40.808  -21.539
13 1   -3.816  -41.921  -18.763
14 1   -7.135  -42.665  -15.345
15 1   -0.948  -39.583  -17.523
16 1   -2.278  -39.230  -14.375
17 1   -5.959  -39.084  -14.998
18 1   -1.461  -41.814  -12.240
19 1   -3.834  -40.608   -9.448
20 1   -6.950  -37.780  -11.233
21 1   -5.945   42.349   -8.287
22 1   -8.085  -40.729   -5.920
23 1   -9.784  -38.046   -9.021
24 1  -11.007  -42.287   -4.076
25 1   -9.236   40.109   -3.050
26 1   -6.410   42.069   -1.135
27 1  -11.260   37.672   -1.243
28 1   -8.223   36.311    1.051
29 1   -4.713   36.729   -2.052
30 1   -8.392   33.341    3.183
31 1   -7.768   30.849   -0.013
32 1   -6.556   33.693   -3.000
33 1    9.002   35.916  -12.997
34 1    6.144   35.023  -16.650
35 1   10.351   38.839  -13.319
36 1   12.000   38.020  -16.879
37 1    8.360   37.522  -18.920
38 1   14.465   40.166  -18.167
39 1   13.813   39.928  -22.044
40 1   13.852   35.265  -22.435
41 1   16.293   41.676  -24.096
42 1   15.533   39.755  -27.387
43 1   16.014   36.276  -25.587
44 1   17.258   40.920  -30.599
45 1   13.817   40.497  -32.604
46 1   11.940  -42.218  -30.983
47 1   13.565   39.866  -36.030
48 1   11.460  -42.461  -36.929
49 1   12.494  -38.849  -33.923
50 1   11.986  -41.301  -40.210
51 1   11.266  -37.826  -39.170
52 1   14.405  -37.480  -36.896
53 1   10.919  -35.313  -41.559
54 1   12.684  -32.437  -39.347
55 1   15.565  -32.479  -42.020
56 1   13.391  -32.926  -36.183
57 1   13.557  -29.446  -34.737
58 1   10.333  -26.779  -37.506
59 1   12.880  -28.721  -31.007
60 1   11.957  -24.880  -31.783
61 1    8.641  -26.377  -34.207
62 1   10.961  -22.612  -29.159
63 1   12.023  -24.320  -25.993
64 1    8.550  -22.820  -22.668
ITEM: TIMESTEP
9
ITEM: NUMBER OF ATOMS
64
ITEM: BOX BOUNDS pp pp pp
-41.63090133666992 43.88309860229492
11.97659969329834 97.4906005859375
-42.77090072631836 42.743099212646484
ITEM: ATOMS id type xu yu zu
1 1  -19.152   32.680    0.214
2 1  -16.200   35.781   -0.291
3 1  -19.086   30.628    3.062
4 1  -21.980   27.898    1.940
5 1  -19.700   23.908    2.706
6 1  -25.482   27.877    3.552
7 1  -25.625   23.793    3.166
8 1  -22.163   23.296    5.422
9 1  -28.238   21.574    3.966
10 1  -30.695   24.156    2.835
11 1  -30.204   24.102   -1.424
12 1  -34.105   23.199    3.917
13 1  -36.016   25.345    0.965
14 1  -40.989   24.936    1.685
15 1  -35.200   29.147    0.778
16 1  -38.413   30.075    3.841
17 1  -41.289   28.494    1.849
18 1  -39.122   33.414    4.664
19 1   42.395   32.738    5.425
20 1   41.201   28.097    4.961
21 1   40.930   33.961    8.894
22 1   37.023   32.373    8.432
23 1   38.330   27.957    7.037
24 1   34.655   32.428   10.788
25 1   33.163   28.685    9.266
26 1   33.002   30.669    5.020
27 1   29.707   27.225   10.603
28 1   31.823   23.590    9.874
29 1   34.451   24.696    6.214
30 1   33.712   22.253   12.108
31 1   30.672   21.440   14.446
32 1   27.397   20.363   11.865
33 1  -14.065   31.674  -41.037
34 1  -18.423   31.969  -42.771
35 1  -13.528   34.547  -38.436
36 1  -16.767   33.267  -36.400
37 1  -19.529   34.112  -39.824
38 1  -17.658   35.069  -32.887
39 1  -21.568   34.277  -32.879
40 1  -21.001   29.104  -32.493
41 1  -23.671   35.247  -29.836
42 1  -27.137   33.301  -30.915
43 1  -24.524   29.579  -31.424
44 1  -29.405   33.041  -28.490
45 1  -32.800   31.894  -30.667
46 1  -31.867   33.995  -33.889
47 1  -35.764   32.775  -29.313
48 1  -37.609   29.749  -30.452
49 1  -34.757   26.581  -33.294
50 1  -38.409   27.795  -27.835
51 1  -39.723   24.797  -29.453
52 1  -36.181   23.749  -31.407
53 1  -41.631   22.241  -28.149
54 1  -39.520   19.598  -30.194
55 1  -38.711   22.132  -33.720
56 1  -41.070   16.137  -30.459
57 1  -38.031   13.568  -30.254
58 1  -37.231   13.097  -25.836
59 1  -35.058   14.338  -32.135
60 1  -32.688   15.246  -29.003
61 1  -33.921   11.977  -26.962
62 1  -29.475   15.501  -29.165
63 1  -29.221   14.082  -25.178
64 1  -33.135   14.496  -23.344
ITEM: TIMESTEP
10
ITEM: NUMBER OF ATOMS
64
ITEM: BOX BOUNDS pp pp pp
-42.39910125732422 43.114898681640625
-41.435298919677734 44.07870101928711
-33.77299880981445 51.74100112915039
ITEM: ATOMS id type xu yu zu
1 1  -13.591   22.542    5.535
2 1  -14.005   25.186    8.824
3 1  -13.323   23.491    2.458
4 1  -13.632   20.311    0.510
5 1  -11.579   20.548   -3.214
6 1  -16.981   18.656    0.290
7 1  -15.223   15.465   -1.166
8 1  -13.412   17.480   -3.883
9 1  -17.007   12.356   -2.477
10 1  -18.771   10.930    0.736
11 1  -22.798    8.827   -0.897
12 1  -19.817   13.435    3.400
13 1  -23.538   14.517    1.634
14 1  -25.978   10.780   -0.506
15 1  -25.463   17.045    2.902
16 1  -29.382   16.066    1.579
17 1  -28.944   11.908    1.104
18 1  -32.256   17.462    2.689
19 1  -34.160   14.047    1.999
20 1  -31.742   10.077    4.054
21 1  -37.664   14.165    3.204
22 1  -36.687   13.014    7.018
23 1  -34.265    9.099    6.405
24 1  -39.511   12.622    9.476
25 1  -40.552    9.098    8.345
26 1  -36.778    7.500    8.648
27 1   42.390    7.515    9.818
28 1  -42.245    3.940    8.236
29 1  -37.835    2.828    8.069
30 1   40.803    1.471    7.322
31 1  -42.399   -0.605    4.536
32 1  -38.762   -0.546    7.004
33 1  -32.235  -38.523  -26.802
34 1  -28.667  -39.320  -29.856
35 1  -35.122  -40.257  -27.631
36 1  -34.825  -39.865  -31.653
37 1  -31.245  -41.435  -31.597
38 1  -37.129  -41.358  -33.773
39 1  -37.007   40.384  -31.961
40 1  -32.095   39.468  -31.058
41 1  -39.117   39.770  -29.415
42 1  -37.413   36.812  -28.267
43 1  -33.909   38.662  -27.672
44 1  -38.724   35.215  -24.979
45 1  -35.262   33.706  -24.313
46 1  -33.372   37.078  -23.828
47 1  -34.950   30.594  -21.598
48 1  -31.770   31.825  -19.751
49 1  -28.504   33.572  -22.917
50 1  -30.211   30.095  -16.749
51 1  -28.093   33.626  -15.914
52 1  -27.821   34.987  -19.549
53 1  -25.029   33.904  -13.566
54 1  -24.482   37.838  -14.448
55 1  -24.265   36.354  -18.838
56 1  -21.896   40.007  -13.020
57 1  -24.358   41.464   -9.889
58 1  -23.001   38.537   -6.291
59 1  -23.631  -40.265   -8.713
60 1  -23.017  -40.574   -5.408
61 1  -20.360   41.088   -5.691
62 1  -21.713  -37.704   -3.973
63 1  -19.851  -39.848   -0.781
64 1  -22.158  -38.471    3.345
ITEM: TIMESTEP
11
ITEM: NUMBER OF ATOMS
64
ITEM: BOX BOUNDS pp pp pp
-41.45750045776367 44.05649948120117
-42.20359802246094 43.310401916503906
-26.81730079650879 58.69670104980469
ITEM: ATOMS id type xu yu zu
1 1   11.123  -22.428  -10.706
2 1    9.225  -21.518   -7.161
3 1   12.587  -25.366  -10.928
4 1   11.498  -26.844   -7.946
5 1   10.604  -31.442   -9.294
6 1   13.813  -26.619   -4.989
7 1   12.391  -29.382   -3.232
8 1   12.899  -31.428   -6.552
9 1   13.916  -30.581   -0.408
10 1   12.176  -34.387   -0.869
11 1    8.653  -33.592   -3.115
12 1   13.730  -37.018   -2.305
13 1   10.807  -39.536   -3.175
14 1    6.653  -36.821   -3.277
15 1   11.338  -41.156   -5.709
16 1    7.874  -42.204   -6.748
17 1    6.527  -37.982   -6.749
18 1    6.303   41.206   -5.143
19 1    7.418   38.012   -7.032
20 1    4.541   37.513  -10.823
21 1   10.367   36.573   -7.240
22 1    9.547   34.605  -10.718
23 1    7.082   38.018  -13.840
24 1   11.812   32.408  -11.886
25 1   11.553   32.932  -16.413
26 1    9.010   35.714  -16.133
27 1   14.308   33.694  -18.513
28 1   12.709   33.197  -21.704
29 1   11.234   28.389  -21.988
30 1   14.067   33.927  -24.521
31 1   11.330   33.662  -26.817
32 1   10.173   30.029  -25.046
33 1  -15.215   16.234    1.567
34 1  -13.306   15.018   -3.016
35 1  -12.868   16.898    3.769
36 1  -13.444   13.019    5.981
37 1  -17.585   14.205    7.150
38 1  -11.216   12.270    8.427
39 1  -12.992   12.888   11.564
40 1  -16.150   16.159   10.424
41 1  -14.593   10.422   14.188
42 1  -15.831   13.026   16.529
43 1  -17.900   15.058   13.431
44 1  -17.461   12.146   20.104
45 1  -19.434   15.550   20.675
46 1  -20.410   16.630   16.389
47 1  -22.685   15.904   23.000
48 1  -23.900   19.128   21.315
49 1  -24.145   18.324   16.316
50 1  -26.885   20.822   22.446
51 1  -27.226   22.714   19.186
52 1  -27.511   19.585   16.930
53 1  -30.077   24.793   18.879
54 1  -32.253   22.433   20.892
55 1  -30.921   19.028   18.687
56 1  -36.143   23.121   21.233
57 1  -36.849   19.757   22.073
58 1  -36.322   19.597   26.742
59 1  -39.783   18.483   21.390
60 1  -41.458   17.983   25.301
61 1  -39.969   21.120   26.871
62 1   40.309   17.337   25.660
63 1   40.273   14.738   28.044
64 1   41.338   11.158   25.210
ITEM: TIMESTEP
12
ITEM: NUMBER OF ATOMS
64
ITEM: BOX BOUNDS pp pp pp
-41.80699920654297 43.707000732421875
-43.000797271728516 42.51320266723633
-39.33890151977539 46.17509841918945
ITEM: ATOMS id type xu yu zu
1 1   32.687   15.937  -34.018
2 1   36.898   14.936  -34.209
3 1   31.762   19.578  -34.461
4 1   33.778   19.879  -37.357
5 1   38.663   19.590  -35.816
6 1   33.381   22.427  -39.339
7 1   34.247   25.423  -36.243
8 1   37.543   22.822  -34.711
9 1   34.727   28.453  -37.618
10 1   38.058   29.179  -35.725
11 1   39.267   33.699  -36.952
12 1   38.681   28.468  -31.791
13 1   41.310   31.673  -31.314
14 1   38.963   35.643  -33.250
15 1   42.407   32.243  -28.212
16 1  -41.332   35.472  -29.405
17 1   41.576   37.660  -31.739
18 1  -39.673   36.942  -27.115
19 1  -38.859   39.794  -29.154
20 1   42.636   41.769  -31.479
21 1  -36.929  -43.001  -28.107
22 1  -39.880  -41.919  -26.074
23 1   42.401  -41.252  -28.864
24 1  -39.347  -39.160  -23.658
25 1  -41.807  -40.376  -21.372
26 1   41.149  -41.648  -24.757
27 1   41.900  -38.363  -18.533
28 1   39.223  -36.996  -20.827
29 1   41.313  -33.569  -23.145
30 1   36.375  -35.470  -19.397
31 1   34.545  -34.482  -23.203
32 1   38.190  -31.669  -24.326
33 1  -22.395   32.456   15.027
34 1  -22.496   30.984   19.587
35 1  -21.696   29.889   12.962
36 1  -20.888   27.376   15.817
37 1  -24.468   28.442   17.752
38 1  -20.487   23.523   14.888
39 1  -24.671   23.523   14.089
40 1  -26.357   24.640   18.039
41 1  -25.896   20.334   13.029
42 1  -26.419   21.736    9.851
43 1  -22.827   20.175    8.433
44 1  -26.652   24.885    9.663
45 1  -29.006   24.599    6.384
46 1  -27.476   28.133    3.914
47 1  -29.086   21.400    4.864
48 1  -27.878   22.428    1.373
49 1  -23.974   25.875    1.988
50 1  -30.200   23.585   -0.754
51 1  -27.591   23.838   -4.169
52 1  -24.381   26.214   -1.863
53 1  -26.729   20.949   -5.835
54 1  -24.350   23.160   -8.613
55 1  -21.458   20.300   -8.733
56 1  -26.022   24.161  -12.014
57 1  -24.400   20.532  -13.515
58 1  -20.049   21.012  -12.543
59 1  -25.275   19.582  -17.213
60 1  -25.095   23.611  -18.622
61 1  -24.187   22.294  -22.375
62 1  -27.932   25.717  -18.295
63 1  -27.107   27.682  -21.471
64 1  -31.160   30.535  -21.412
ITEM: TIMESTEP
13
ITEM: NUMBER OF ATOMS
64
ITEM: BOX BOUNDS pp pp pp
-42.636497497558594 42.87750244140625
-39.504798889160156 46.00920104980469
-13.709000587463379 71.80500030517578
ITEM: ATOMS id type xu yu zu
1 1   -1.069   30.235   13.584
2 1   -0.135   26.846   15.449
3 1   -4.131   30.938   13.434
4 1   -4.138   30.765    9.690
5 1   -0.799   33.536    8.835
6 1   -6.869   31.600    8.242
7 1   -5.032   34.796    7.252
8 1   -3.281   35.306   11.161
9 1   -6.912   37.271    5.928
10 1   -5.811   36.930    2.680
11 1   -6.066   32.063    2.531
12 1   -7.300   39.396   -0.273
13 1   -6.436   37.165   -3.155
14 1   -6.979   32.438   -1.313
15 1   -8.435   37.303   -6.420
16 1  -11.107   33.850   -5.544
17 1   -8.236   30.993   -4.590