ITEM: TIMESTEP
0
ITEM: NUMBER OF ATOMS
63
ITEM: BOX BOUNDS pp pp pp
-36.05350112915039 49.46049880981445
-42.88370132446289 42.63029861450195
-41.13279724121094 44.381202697753906
ITEM: ATOMS id type xu yu zu
1 1  -17.403  -26.212  -25.035
2 1  -13.936  -24.644  -24.073
3 1  -17.409  -29.702  -25.029
4 1  -20.056  -30.482  -22.311
5 1  -19.562  -30.482  -18.523
6 1  -22.040  -33.244  -18.037
7 1  -24.427  -31.694  -21.186
8 1  -21.074  -36.609  -18.986
9 1  -24.878  -37.915  -20.144
10 1  -25.875  -34.713  -23.759
11 1  -25.576  -41.132  -21.023
12 1  -28.154  -40.448  -23.940
13 1  -26.216  -36.742  -27.151
14 1  -29.508   42.342  -26.116
15 1  -30.806  -40.383  -28.169
16 1  -27.100  -39.178  -30.102
17 1  -33.233  -41.062  -30.842
18 1  -32.596  -38.130  -32.953
19 1  -27.473  -37.890  -34.117
20 1  -34.783  -37.432  -35.757
21 1  -31.532  -36.229  -37.835
22 1  -27.849  -39.465  -37.300
23 1  -32.179  -34.920  -41.133
24 1  -28.052  -34.836   42.846
25 1  -27.752  -38.675  -41.014
26 1  -27.029  -34.199   39.428
27 1  -27.446  -37.717   38.216
28 1  -24.200  -40.060   40.963
29 1  -27.354  -38.755   34.796
30 1  -29.824  -41.920   35.462
31 1  -26.938   41.663   37.380
32 1  -27.559   35.673  -39.697
33 1  -26.462   37.430   42.087
34 1  -24.441   35.239  -37.523
35 1  -22.207   37.374  -39.342
36 1  -23.135   35.722   42.099
37 1  -18.924   37.463  -38.863
38 1  -18.725   40.972  -39.648
39 1  -23.332  -42.884  -39.782
40 1  -16.410  -42.269  -37.984
41 1  -18.009  -38.966  -38.692
42 1  -21.953  -40.391  -37.523
43 1  -16.898  -35.989  -37.463
44 1  -20.122  -34.606  -37.548
45 1  -22.133  -36.898  -35.071
46 1  -20.395  -31.305  -36.737
47 1  -24.418  -31.708  -36.137
48 1  -24.912  -34.665  -32.757
49 1  -26.190  -29.121  -35.165
50 1  -29.160  -30.984  -33.377
51 1  -26.525  -32.424  -30.440
52 1  -31.321  -29.120  -32.261
53 1  -32.446  -31.465  -29.333
54 1  -28.445  -31.052  -27.431
55 1  -35.235  -31.152  -27.499
56 1  -34.236  -33.079  -24.654
57 1  -30.196  -32.033  -23.714
58 1  -36.054  -32.719  -21.798
59 1  -34.668  -35.867  -20.869
60 1  -31.013  -33.906  -20.679
61 1  -35.584  -37.587  -17.964
62 1  -32.586  -39.698  -18.380
63 1  -29.465  -36.333  -17.685
ITEM: TIMESTEP
1
ITEM: NUMBER OF ATOMS
63
ITEM: BOX BOUNDS pp pp pp
-26.553199768066406 58.96080017089844
-27.398099899291992 58.11589813232422
-42.83409881591797 42.679901123046875
ITEM: ATOMS id type xu yu zu
1 1   14.167    7.360   18.506
2 1   11.430   10.573   18.736
3 1   15.171    6.305   15.034
4 1   17.615    9.619   13.967
5 1   17.288   13.176   15.602
6 1   20.232   14.997   13.307
7 1   17.615   15.534   10.240
8 1   22.032   17.732   14.124
9 1   22.278   19.170   10.227
10 1   17.778   19.934    9.317
11 1   23.809   21.810    9.851
12 1   22.420   22.924    6.629
13 1   17.536   23.231    7.355
14 1   22.962   25.515    5.371
15 1   19.920   25.451    3.701
16 1   17.592   26.744    6.490
17 1   18.619   22.792    2.170
18 1   15.596   24.419    1.692
19 1   13.479   25.394    6.047
20 1   13.263   22.762   -0.091
21 1   11.001   25.932    0.337
22 1   10.200   26.466    4.994
23 1    8.185   26.054   -1.297
24 1    7.935   29.493   -1.797
25 1    8.340   29.962    2.013
26 1    4.885   31.121   -3.575
27 1    3.267   32.805   -0.628
28 1    7.053   34.322    1.192
29 1    1.485   35.537   -1.311
30 1    1.708   36.787    1.958
31 1   -2.409   36.871    2.314
32 1  -16.653  -21.851   27.449
33 1  -19.959  -22.609   24.943
34 1  -17.366  -20.139   30.683
35 1  -19.968  -22.549   32.550
36 1  -20.893  -25.206   28.830
37 1  -22.722  -21.252   34.760
38 1  -23.148  -24.026   37.013
39 1  -19.438  -24.160   39.893
40 1  -26.513  -23.929   38.802
41 1  -24.901  -24.134   42.276
42 1  -21.709  -21.477   41.430
43 1  -26.553  -23.438  -40.638
44 1  -23.907  -22.916  -38.088
45 1  -21.806  -20.147  -39.173
46 1  -22.542  -25.420  -36.865
47 1  -18.869  -25.015  -38.092
48 1  -17.872  -20.154  -36.992
49 1  -16.261  -27.398  -37.414
50 1  -13.161  -25.580  -38.878
51 1  -14.818  -21.657  -39.164
52 1   -9.810  -25.175  -37.018
53 1   -7.460  -26.195  -40.684
54 1   -8.030  -22.489  -42.834
55 1   -4.336  -27.319  -40.609
56 1   -3.170  -24.391  -42.514
57 1   -5.102  -21.048  -40.408
58 1    0.111  -23.387   42.788
59 1    0.925  -23.406  -38.934
60 1   -2.441  -21.214  -37.885
61 1    4.196  -22.558  -37.841
62 1    3.540  -18.758  -35.627
63 1    7.548  -16.216  -35.927
ITEM: TIMESTEP
2
ITEM: NUMBER OF ATOMS
63
ITEM: BOX BOUNDS pp pp pp
-24.203998565673828 61.310001373291016
-31.65489959716797 53.859100341796875
-40.99810028076172 44.515899658203125
ITEM: ATOMS id type xu yu zu
1 1   22.624   30.011   15.439
2 1   21.229   30.233   19.028
3 1   25.555   28.774   15.516
4 1   25.355   27.048   19.273
5 1   22.657   24.449   19.872
6 1   25.081   21.889   19.949
7 1   27.505   23.836   17.188
8 1   23.914   18.505   19.789
9 1   25.689   16.893   23.162
10 1   27.086   21.077   24.910
11 1   23.313   15.510   25.485
12 1   25.031   12.000   25.754
13 1   26.545   11.782   30.526
14 1   23.226    8.750   24.757
15 1   25.299    7.162   27.991
16 1   23.434    9.815   30.860
17 1   25.252    3.757   28.647
18 1   25.142    4.190   32.616
19 1   21.400    6.434   33.740
20 1   25.041    0.946   34.605
21 1   25.183    2.730   37.953
22 1   28.921    5.456   37.391
23 1   25.801    0.823   41.106
24 1   29.743    1.472   41.842
25 1   29.597    5.355   41.001
26 1   30.818    0.403  -40.035
27 1   29.878    3.972  -38.117
28 1   30.262    7.528  -40.998
29 1   29.881    4.885  -34.266
30 1   26.561    3.024  -33.404
31 1   28.639    0.942  -30.376
32 1   -0.734  -28.431    9.844
33 1    1.255  -26.522   13.083
34 1   -3.448  -30.032   10.839
35 1   -2.183  -30.120   14.592
36 1   -1.918  -25.620   14.749
37 1   -4.551  -31.655   17.178
38 1   -3.251  -29.300   20.388
39 1   -4.229  -24.808   18.506
40 1   -4.255  -30.072   23.785
41 1   -4.010  -26.837   25.543
42 1   -5.466  -24.545   22.226
43 1   -6.007  -26.636   28.490
44 1   -6.523  -22.780   28.345
45 1   -8.232  -23.221   24.914
46 1   -8.216  -21.401   30.820
47 1   -9.016  -18.335   28.789
48 1   -7.018  -14.517   31.839
49 1  -12.613  -17.567   27.541
50 1  -13.898  -16.266   31.127
51 1  -13.473  -12.254   30.623
52 1  -17.401  -17.320   32.457
53 1  -17.627  -15.006   36.177
54 1  -15.275  -11.775   34.108
55 1  -20.955  -14.059   37.424
56 1  -22.697  -14.642   34.125
57 1  -22.604  -10.603   32.085
58 1  -21.613  -17.306   32.335
59 1  -24.204  -16.702   29.213
60 1  -22.998  -12.691   29.071
61 1  -23.719  -18.724   26.451
62 1  -22.158  -15.967   24.003
63 1  -19.996  -19.122   20.740
ITEM: TIMESTEP
3
ITEM: NUMBER OF ATOMS
63
ITEM: BOX BOUNDS pp pp pp
-43.14990234375 42.364097595214844
-22.093698501586914 63.42030334472656
-42.03179931640625 43.482200622558594
ITEM: ATOMS id type xu yu zu
1 1   18.063  -22.094  -31.767
2 1   16.436  -19.338  -29.418
3 1   20.658  -21.201  -34.209
4 1   18.475  -19.032  -36.811
5 1   19.868  -17.383  -40.021
6 1   20.724  -13.577  -38.356
7 1   23.417  -15.300  -36.724
8 1   21.269  -10.633  -40.309
9 1   21.886   -8.117  -37.674
10 1   18.546   -8.069  -34.358
11 1   22.852   -4.882  -38.348
12 1   26.239   -5.418  -36.606
13 1   28.792   -9.723  -38.477
14 1   28.316   -2.846  -36.728
15 1   31.667   -5.280  -37.653
16 1   29.843   -7.124  -40.684
17 1   34.685   -3.531  -38.252
18 1   36.362   -6.753  -40.142
19 1   33.125   -8.966   42.845
20 1   39.292   -6.682  -42.032
21 1   41.982   -4.696  -39.627
22 1   39.821   -0.397  -39.107
23 1  -40.224   -4.040  -40.590
24 1  -39.365   -2.959  -36.903
25 1  -43.150   -0.515  -36.528
26 1  -36.017   -1.314  -35.722
27 1  -35.747   -3.502  -32.570
28 1  -32.185   -5.863  -33.371
29 1  -38.139   -5.703  -31.477
30 1  -36.484   -6.115  -27.847
31 1  -32.520   -6.865  -29.826
32 1   13.344   24.092  -20.606
33 1    9.346   26.515  -21.307
34 1   14.748   24.589  -17.214
35 1   11.062   24.737  -15.585
36 1    9.648   27.397  -17.707
37 1   10.657   25.104  -11.733
38 1    7.752   22.747  -11.131
39 1    6.235   21.836  -15.634
40 1    8.201   19.669   -8.472
41 1    5.363   17.689   -9.647
42 1    6.284   18.757  -13.514
43 1    4.971   14.154   -8.754
44 1    3.319   13.375  -11.747
45 1    6.238   14.936  -14.859
46 1    2.302   10.193  -11.771
47 1    4.214   10.068  -15.598
48 1    3.335   14.239  -18.164
49 1    4.913    7.069  -17.571
50 1    1.770    7.646  -20.026
51 1    1.711   11.917  -20.558
52 1    1.717    5.883  -23.132
53 1    4.971    8.101  -24.600
54 1    3.505   12.031  -23.917
55 1    6.045    7.454  -27.595
56 1    3.892    9.875  -29.161
57 1    5.524   13.970  -27.756
58 1    2.793    9.691  -32.844
59 1    2.492   13.770  -32.898
60 1    6.133   13.836  -31.229
61 1    2.030   15.574  -36.086
62 1    3.312   19.208  -34.111
63 1    7.722   19.831  -35.278
ITEM: TIMESTEP
4
ITEM: NUMBER OF ATOMS
63
ITEM: BOX BOUNDS pp pp pp
-10.274800300598145 75.23919677734375
8.97622013092041 94.49021911621094
-35.73500061035156 49.77899932861328
ITEM: ATOMS id type xu yu zu
1 1   29.277   17.975   14.233
2 1   29.785   15.779   10.478
3 1   31.693   17.609   17.337
4 1   30.651   20.464   19.137
5 1   32.183   21.231   22.424
6 1   30.247   24.376   22.722
7 1   26.487   22.392   23.324
8 1   31.098   26.695   25.441
9 1   27.482   28.489   25.077
10 1   24.282   25.129   25.791
11 1   26.993   31.483   27.217
12 1   23.578   31.792   26.274
13 1   21.083   27.317   25.997
14 1   21.302   34.571   27.803
15 1   17.494   32.261   28.293
16 1   18.206   29.683   25.323
17 1   16.766   30.215   31.681
18 1   14.266   27.598   30.186
19 1   14.758   27.353   25.251
20 1   13.664   24.112   31.916
21 1   11.152   23.024   29.280
22 1   12.862   24.363   25.055
23 1    9.348   20.262   29.323
24 1    8.661   20.171   25.504
25 1   12.951   20.461   24.951
26 1    7.464   17.248   24.430
27 1   10.339   16.676   22.300
28 1   11.757   20.786   20.796
29 1   13.317   14.493   23.990
30 1   16.532   16.865   21.855
31 1   13.591   18.082   19.138
32 1    6.998   31.528  -32.722
33 1    3.775   32.212  -35.735
34 1    8.737   34.879  -31.373
35 1    7.618   33.831  -27.742
36 1    4.000   35.604  -28.795
37 1    9.792   34.693  -24.748
38 1    9.185   30.962  -23.096
39 1    4.623   30.098  -23.296
40 1   10.677   30.171  -19.728
41 1    7.213   31.513  -18.046
42 1    4.649   28.581  -19.949
43 1    6.448   31.745  -14.444
44 1    2.494   31.248  -14.929
45 1    2.040   27.806  -16.840
46 1   -0.521   31.604  -12.520
47 1   -2.871   28.925  -14.524
48 1   -0.648   24.677  -15.370
49 1   -6.362   28.538  -12.878
50 1   -7.418   25.821  -14.744
51 1   -3.951   23.491  -14.608
52 1  -10.275   24.320  -14.605
53 1   -8.765   20.524  -15.741
54 1   -5.413   20.747  -12.518
55 1   -7.392   19.891  -19.329
56 1   -6.536   16.201  -18.572
57 1   -8.092   13.513  -22.169
58 1   -3.231   15.425  -17.355
59 1   -2.961   11.882  -18.791
60 1   -4.476   13.065  -22.009
61 1   -4.666    9.099  -16.922
62 1   -7.526    8.976  -19.292
63 1   -5.636    9.233  -23.581
ITEM: TIMESTEP
5
ITEM: NUMBER OF ATOMS
63
ITEM: BOX BOUNDS pp pp pp
-14.00320053100586 71.51080322265625
-8.42883014678955 77.08516693115234
-43.95429992675781 41.55970001220703
ITEM: ATOMS id type xu yu zu
1 1   22.850    8.469   36.578
2 1   25.192    9.366   33.036
3 1   20.197   11.235   37.433
4 1   17.750   11.043   34.591
5 1   16.254    7.909   33.837
6 1   13.402    8.322   36.231
7 1   10.998    9.994   32.696
8 1   12.043    5.495   37.853
9 1    9.350    7.343   39.053
10 1    7.271    8.659   34.953
11 1    7.027    5.775   41.388
12 1    3.750    8.048   39.967
13 1    2.854    7.906   34.898
14 1    0.602    7.395   41.605
15 1   -1.860    8.542   38.584
16 1   -0.772    6.526   35.674
17 1   -5.540    8.816   38.616
18 1   -6.095    9.095   34.930
19 1   -3.787    5.368   32.804
20 1   -9.054    9.250   33.812
21 1   -7.987    7.846   30.058
22 1   -6.118    3.499   30.801
23 1  -10.498    8.033   27.488
24 1   -8.326    5.490   24.937
25 1   -8.390    2.337   28.132
26 1   -9.621    4.677   21.907
27 1   -7.860    1.221   21.935
28 1   -9.989   -0.757   25.676
29 1   -8.584   -0.540   19.201
30 1  -12.409   -0.253   19.721
31 1  -12.334   -2.503   23.414
32 1  -14.003   -5.777   33.150
33 1  -13.051   -3.582   29.299
34 1  -11.565   -6.581   35.227
35 1   -8.950   -7.206   32.216
36 1   -9.729   -3.649   30.841
37 1   -5.105   -8.429   32.914
38 1   -3.501   -6.535   30.017
39 1   -5.640   -2.533   30.039
40 1   -0.040   -5.994   29.585
41 1   -0.680   -2.650   27.619
42 1   -2.376   -0.959   30.518
43 1    2.120   -1.054   25.453
44 1   -0.032    2.287   25.145
45 1   -0.371    2.656   29.387
46 1    1.254    5.302   23.315
47 1   -1.019    7.874   25.533
48 1   -0.123    7.020   29.924
49 1   -1.222   11.345   25.046
50 1   -1.734   12.291   28.725
51 1    1.450   10.166   30.120
52 1   -1.639   15.877   30.070
53 1    0.270   14.512   33.764
54 1    3.973   12.402   31.997
55 1    0.765   16.942   36.253
56 1    1.297   14.506   39.234
57 1    3.807   17.033  -42.962
58 1   -1.294   13.375   41.060
59 1   -3.125   16.925   41.746
60 1    0.497   18.026  -41.806
61 1   -6.492   17.115  -41.565
62 1   -7.895   18.785   41.126
63 1  -12.899   19.089  -43.954
ITEM: TIMESTEP
6
ITEM: NUMBER OF ATOMS
63
ITEM: BOX BOUNDS pp pp pp
-38.42900085449219 47.084999084472656
-20.512699127197266 65.00129699707031
-42.78179931640625 42.732200622558594
ITEM: ATOMS id type xu yu zu
1 1  -37.854   -0.136  -25.411
2 1  -38.429   -1.345  -21.333
3 1  -36.501   -2.783  -27.751
4 1  -34.546   -0.334  -29.868
5 1  -32.779   -1.192  -32.651
6 1  -30.075    1.903  -33.022
7 1  -28.342    0.059  -29.849
8 1  -28.468    2.268  -35.909
9 1  -25.090    4.198  -33.770
10 1  -24.402    0.524  -30.887
11 1  -21.593    4.562  -35.464
12 1  -19.675    4.206  -32.151
13 1  -20.679   -0.235  -30.451
14 1  -16.436    5.136  -32.326
15 1  -15.580    2.477  -29.472
16 1  -17.087   -0.929  -31.329
17 1  -11.843    1.964  -28.340
18 1  -12.239   -1.704  -27.302
19 1  -14.688   -4.369  -30.913
20 1   -9.682   -3.462  -26.189
21 1  -11.137   -7.335  -26.938
22 1  -12.854   -7.321  -31.620
23 1   -8.848   -9.895  -26.490
24 1  -11.018  -12.630  -28.752
25 1  -10.228   -9.972  -31.852
26 1  -10.197  -16.137  -28.550
27 1  -11.891  -16.753  -32.391
28 1   -9.232  -13.119  -34.502
29 1  -11.133  -19.751  -33.585
30 1  -15.125  -20.513  -34.802
31 1  -15.707  -18.822  -31.438
32 1   -2.973   -7.504  -41.010
33 1   -5.641  -11.065  -38.975
34 1   -5.219   -5.043  -42.782
35 1   -8.414   -7.578  -42.601
36 1   -7.888   -8.288  -38.432
37 1  -11.728   -6.613   41.871
38 1  -13.418   -9.594  -41.714
39 1  -11.964   -8.836  -37.566
40 1  -17.307  -10.208  -41.860
41 1  -17.489  -12.027  -38.411
42 1  -15.477   -8.529  -36.773
43 1  -20.308  -12.843  -36.652
44 1  -19.274  -11.995  -33.070
45 1  -18.258   -7.864  -33.574
46 1  -21.792  -12.319  -30.877
47 1  -20.050  -10.328  -27.882
48 1  -19.214   -5.959  -29.829
49 1  -21.908  -10.097  -24.690
50 1  -20.167   -6.738  -23.619
51 1  -21.412   -4.835  -27.125
52 1  -21.087   -4.932  -20.844
53 1  -20.147   -1.583  -22.327
54 1  -22.757   -1.843  -25.203
55 1  -19.932    1.737  -20.276
56 1  -21.723    3.874  -23.018
57 1  -24.727    1.983  -25.325
58 1  -23.070    7.422  -21.882
59 1  -26.619    6.946  -24.010
60 1  -24.252    5.101  -27.103
61 1  -28.196    9.678  -24.822
62 1  -25.017   11.539  -26.527
63 1  -21.164    8.385  -25.991
ITEM: TIMESTEP
7
ITEM: NUMBER OF ATOMS
63
ITEM: BOX BOUNDS pp pp pp
16.16619873046875 101.6801986694336
-22.09600067138672 63.417999267578125
0.5047709941864014 86.01876831054688
ITEM: ATOMS id type xu yu zu
1 1   30.152  -19.593    9.473
2 1   31.491  -22.096   13.201
3 1   30.706  -16.046    9.847
4 1   34.586  -16.015   10.166
5 1   36.903  -13.063   10.224
6 1   35.280  -11.956   13.126
7 1   32.694  -10.546   10.526
8 1   36.796   -9.666   15.178
9 1   36.818   -6.665   12.361
10 1   32.477   -6.204   11.198
11 1   38.198   -3.899   13.449
12 1   36.331   -1.620   11.275
13 1   31.319   -2.624   11.921
14 1   36.778    2.039   11.722
15 1   32.971    3.138   10.260
16 1   30.837    0.980   12.779
17 1   31.975    6.658   10.025
18 1   28.118    6.427   10.619
19 1   27.552    2.885   14.096
20 1   26.133    9.514   11.615
21 1   23.402    7.375   13.568
22 1   25.896    5.082   16.528
23 1   20.398    8.693   14.648
24 1   19.272    5.825   17.046
25 1   23.122    6.618   18.584
26 1   16.166    6.485   19.325
27 1   17.647    5.164   22.641
28 1   22.011    7.235   22.521
29 1   16.257    5.870   26.007
30 1   19.222    4.861   27.924
31 1   21.879    7.425   26.248
32 1   30.818   12.380   25.376
33 1   26.614   11.420   23.918
34 1   32.993    9.187   26.438
35 1   30.076    6.709   27.393
36 1   27.678    7.824   24.028
37 1   30.835    3.535   27.972
38 1   27.878    1.677   25.976
39 1   26.894    3.972   22.443
40 1   27.616   -1.683   26.025
41 1   24.527   -1.784   23.294
42 1   27.066    0.867   20.551
43 1   23.093   -5.049   21.829
44 1   22.042   -3.156   18.426
45 1   25.605   -1.293   17.372
46 1   20.672   -5.208   16.073
47 1   21.346   -3.144   13.124
48 1   26.286   -2.072   13.222
49 1   20.506   -4.778    9.796
50 1   23.010   -3.336    7.696
51 1   26.213   -4.001   10.223
52 1   23.197   -4.161    4.081
53 1   27.190   -2.646    4.051
54 1   28.134   -5.263    7.244
55 1   29.385   -2.606    1.134
56 1   33.032   -3.347    3.401
57 1   32.597   -6.653    5.970
58 1   35.728   -3.650    1.561
59 1   37.264   -6.639    3.908
60 1   39.578   -8.087    0.505
61 1   38.926   -6.197    7.470
62 1   42.064   -8.793    6.668
63 1   40.830  -11.565    2.933
ITEM: TIMESTEP
8
ITEM: NUMBER OF ATOMS
63
ITEM: BOX BOUNDS pp pp pp
-43.786399841308594 41.72760009765625
-0.47824597358703613 85.03575134277344
-25.798500061035156 59.71549987792969
ITEM: ATOMS id type xu yu zu
1 1  -27.830    8.191  -10.604
2 1  -29.088   10.539   -6.910
3 1  -29.762    4.733  -11.496
4 1  -29.175    5.064  -15.036
5 1  -31.094    3.541  -17.271
6 1  -33.621    7.021  -17.623
7 1  -36.999    4.977  -15.671
8 1  -32.688   10.371  -16.074
9 1  -36.332   11.154  -15.243
10 1  -36.880    8.883  -11.584
11 1  -37.438   14.748  -14.530
12 1  -41.176   13.540  -12.627
13 1  -40.202    9.928  -10.225
14 1   42.455   15.795  -10.831
15 1   39.969   12.842   -9.064
16 1  -42.421   11.090   -7.402
17 1   37.129   13.575   -6.964
18 1   38.146   10.467   -4.643
19 1  -42.409    9.769   -3.436
20 1   36.335    9.887   -1.736
21 1   39.041    6.902   -0.903
22 1  -42.157    9.101    0.098
23 1   37.877    4.247    1.612
24 1  -43.786    3.232    1.997
25 1  -42.723    7.162    3.104
26 1  -42.701    0.615    3.522
27 1  -39.161    2.325    4.938
28 1  -40.331    6.261    6.372
29 1  -36.559    0.545    6.759
30 1  -35.632    4.362    8.857
31 1  -39.497    5.643    9.910
32 1  -41.926   15.764   10.707
33 1  -42.157   10.963    9.822
34 1  -40.139   17.563    8.731
35 1  -36.921   14.654    8.833
36 1  -39.539   12.059    7.578
37 1  -34.161   15.523    6.104
38 1  -33.605   12.024    5.125
39 1  -38.156   10.630    4.067
40 1  -31.249   10.815    2.786
41 1  -33.180    7.799    1.827
42 1  -36.089   10.204    0.627
43 1  -32.019    5.915   -0.587
44 1  -35.648    4.196   -0.800
45 1  -37.358    7.203   -2.490
46 1  -35.900    1.338   -2.421
47 1  -39.967    2.074   -2.831
48 1  -40.249    6.330   -5.210
49 1  -42.052   -0.478   -4.414
50 1   41.038    2.494   -6.352
51 1  -41.304    4.809   -8.315
52 1   38.768    1.877   -8.483
53 1   38.858    5.134  -10.324
54 1   43.017    4.676  -11.979
55 1   36.371    5.775  -12.673
56 1   38.401    7.866  -15.229
57 1   42.645    5.322  -16.141
58 1   36.723    9.184  -17.995
59 1   40.459   10.100  -19.909
60 1   41.647    6.073  -19.540
61 1   40.985   11.806  -23.238
62 1  -41.293    9.876  -23.814
63 1  -38.018   12.953  -25.799
ITEM: TIMESTEP
9
ITEM: NUMBER OF ATOMS
63
ITEM: BOX BOUNDS pp pp pp
-41.30229949951172 44.211700439453125
-29.1781005859375 56.335899353027344
-39.76279830932617 45.75120162963867
ITEM: ATOMS id type xu yu zu
1 1  -20.538  -21.022  -12.739
2 1  -21.749  -22.724   -9.030
3 1  -21.820  -18.255  -13.438
4 1  -18.294  -16.539  -13.929
5 1  -17.871  -13.235  -14.727
6 1  -17.303  -13.580  -18.470
7 1  -20.717  -15.971  -19.169
8 1  -16.961  -10.892  -20.332
9 1  -17.975  -12.546  -24.039
10 1  -22.382  -14.519  -23.337
11 1  -17.979  -10.531  -26.937
12 1  -20.524  -12.902  -28.743
13 1  -25.324  -11.840  -27.030
14 1  -20.651  -13.170  -32.344
15 1  -24.860  -14.012  -32.272
16 1  -25.528  -14.996  -28.654
17 1  -26.534  -16.205  -34.770
18 1  -29.827  -15.432  -33.040
19 1  -29.481  -16.473  -27.883
20 1  -33.097  -16.858  -35.130
21 1  -32.097  -20.352  -34.803
22 1  -31.842  -21.537  -30.182
23 1  -33.570  -22.699  -36.496
24 1  -33.520  -25.510  -33.804
25 1  -35.383  -23.101  -30.726
26 1  -30.495  -27.246  -32.556
27 1  -28.970  -27.501  -36.008
28 1  -28.358  -23.516  -36.937
29 1  -25.529  -29.178  -35.597
30 1  -23.432  -26.957  -38.667
31 1  -27.065  -25.782  -39.763
32 1  -41.302    9.210  -13.936
33 1   42.783   13.109  -13.243
34 1  -37.911    9.221  -13.628
35 1  -37.814    5.358  -14.659
36 1  -38.877    6.434  -18.574
37 1  -34.535    3.253  -14.031
38 1  -32.151    6.212  -15.300
39 1  -33.468    7.455  -19.576
40 1  -28.440    6.167  -14.500
41 1  -27.536    9.744  -16.241
42 1  -30.135    9.229  -19.396
43 1  -24.066   10.374  -16.868
44 1  -23.238   13.432  -14.691
45 1  -20.664   11.591  -12.205
46 1  -25.941   15.233  -12.928
47 1  -25.150   14.523   -9.587
48 1  -29.628   13.527   -7.937
49 1  -24.056   17.183   -7.590
50 1  -25.995   20.046   -9.129
51 1  -29.851   18.414   -8.677
52 1  -25.766   23.333   -7.921
53 1  -29.533   24.487   -9.227
54 1  -27.587   26.022  -12.557
55 1  -31.901   26.864   -6.996
56 1  -32.012   29.766   -9.885
57 1  -31.679   27.407  -14.301
58 1  -34.277   32.671  -10.355
59 1  -34.340   32.871  -13.945
60 1  -30.765   31.038  -14.668
61 1  -36.767   32.053  -15.634
62 1  -35.066   31.830  -19.431
63 1  -31.481   35.191  -18.942
ITEM: TIMESTEP
10
ITEM: NUMBER OF ATOMS
63
ITEM: BOX BOUNDS pp pp pp
-30.929899215698242 54.58409881591797
-30.983699798583984 54.53030014038086
-21.530000686645508 63.98400115966797
ITEM: ATOMS id type xu yu zu
1 1   -5.912  -27.754   29.187
2 1   -8.057  -30.984   26.481
3 1   -6.848  -24.396   29.198
4 1   -5.000  -23.163   25.573
5 1   -4.791  -20.313   24.541
6 1   -5.096  -21.121   20.667
7 1   -4.944  -25.150   21.187
8 1   -7.544  -20.003   18.556
9 1   -5.462  -21.163   15.919
10 1   -4.745  -25.916   17.018
11 1   -6.371  -20.097   12.263
12 1   -5.969  -16.247   12.667
13 1   -4.165  -14.747    8.688
14 1   -8.709  -14.358   13.465
15 1   -7.566  -10.665   11.637
16 1   -3.759  -11.385   10.224
17 1   -9.780   -8.799    8.962
18 1  -11.848  -11.595    7.483
19 1  -15.684   -9.624    5.683
20 1  -10.679  -14.192    5.024
21 1  -14.132  -15.516    3.912
22 1  -16.882  -11.599    2.874
23 1  -14.963  -18.649    1.749
24 1  -17.547  -16.428   -0.962
25 1  -15.628  -12.939   -0.551
26 1  -18.651  -17.627   -4.401
27 1  -22.263  -19.103   -3.462
28 1  -23.211  -18.775    0.525
29 1  -25.254  -19.269   -5.518
30 1  -27.256  -20.597   -2.648
31 1  -25.969  -16.890   -0.575
32 1  -19.464   34.513  -16.382
33 1  -23.403   32.454  -18.123
34 1  -16.317   32.696  -17.540
35 1  -17.920   29.807  -19.282
36 1  -14.217   27.386  -20.098
37 1  -21.290   28.333  -18.510
38 1  -20.398   24.852  -20.634
39 1  -16.358   22.870  -19.887
40 1  -23.241   22.267  -19.978
41 1  -20.729   19.606  -21.530
42 1  -23.317   16.903  -20.539
43 1  -18.200   19.140  -20.064
44 1  -19.288   16.216  -18.440
45 1  -22.184   17.979  -16.529
46 1  -17.282   14.360  -15.940
47 1  -19.144   15.455  -13.204
48 1  -23.641   14.501  -14.418
49 1  -18.607   13.592  -10.108
50 1  -21.833   10.724  -10.513
51 1  -25.039   13.365  -10.526
52 1  -22.590    7.792   -7.670
53 1  -23.713    5.246  -10.137
54 1  -20.668    2.723   -9.553
55 1  -26.955    3.198  -10.074
56 1  -25.975    0.874   -6.689
57 1  -25.098    4.486   -3.552
58 1  -28.616   -1.623   -5.101
59 1  -27.791   -0.851   -1.335
60 1  -28.354    3.143   -2.237
61 1  -29.732   -2.086    1.159
62 1  -29.915    0.945    3.313
63 1  -30.930    5.034    0.480
ITEM: TIMESTEP
11
ITEM: NUMBER OF ATOMS
63
ITEM: BOX BOUNDS pp pp pp
0.6296219825744629 86.14362335205078
-42.00669860839844 43.507301330566406
-15.931700706481934 69.5822982788086
ITEM: ATOMS id type xu yu zu
1 1   16.157   27.796  -10.840
2 1   19.066   27.012  -13.252
3 1   15.855   25.533   -8.174
4 1   12.857   27.722   -6.841
5 1   13.150   30.771   -6.369
6 1   10.967   30.779   -3.530
7 1   13.971   30.669   -1.522
8 1    8.970   33.533   -2.727
9 1   10.073   33.660    0.935
10 1   14.312   34.628    0.433
11 1    7.908   35.865    3.116
12 1   10.729   37.758    4.835
13 1   14.557   37.961    2.235
14 1   10.277   41.032    7.105
15 1   13.853   42.943    6.177
16 1   14.485   41.950    2.179
17 1   13.953  -39.583    7.167
18 1   17.195  -38.979    4.690
19 1   16.072  -40.410    0.025
20 1   18.915  -35.906    4.241
21 1   21.223  -37.459    1.250
22 1   17.910  -38.014   -1.965
23 1   23.861  -35.436    0.169
24 1   22.415  -35.723   -3.545
25 1   18.436  -34.382   -2.436
26 1   23.846  -33.979   -5.867
27 1   20.430  -32.149   -7.481
28 1   16.824  -34.675   -7.639
29 1   20.608  -29.862  -10.737
30 1   17.000  -27.923   -9.846
31 1   15.875  -31.127   -7.827
32 1    4.849  -31.170  -13.524
33 1    0.630  -33.210  -13.513
34 1    7.266  -32.907  -15.932
35 1   10.438  -32.424  -13.162
36 1    9.005  -28.567  -12.018
37 1   13.865  -33.652  -13.722
38 1   14.186  -37.187  -11.245
39 1    9.871  -39.763  -11.637
40 1   17.290  -38.820  -11.156
41 1   15.705  -42.007  -10.150
42 1   14.633  -40.254   -6.406
43 1   17.882   40.451  -10.343
44 1   20.205   41.382   -7.453
45 1   17.268   42.396   -4.860
46 1   22.617   39.174   -6.381
47 1   22.914   40.361   -3.093
48 1   18.624   40.805   -1.008
49 1   25.332   38.350   -1.212
50 1   23.503   38.955    1.884
51 1   20.035   38.219    0.823
52 1   24.643   37.366    5.157
53 1   21.303   36.021    6.351
54 1   19.656   35.082    2.834
55 1   20.357   34.917    9.175
56 1   16.626   34.841    8.346
57 1   16.348   32.202    4.171
58 1   14.116   33.869   10.359
59 1   11.822   31.773    7.295
60 1   14.973   29.492    6.657
61 1    8.740   30.144    8.182
62 1    9.335   29.881   12.151
63 1    6.790   33.897   13.607
ITEM: TIMESTEP
12
ITEM: NUMBER OF ATOMS
63
ITEM: BOX BOUNDS pp pp pp
-12.758599281311035 72.75540161132812
-11.613999366760254 73.9000015258789
-27.148700714111328 58.365299224853516
ITEM: ATOMS id type xu yu zu
1 1    7.782    6.569  -14.775
2 1    6.999    9.736  -12.151
3 1    4.911    4.698  -16.026
4 1    6.016    4.471  -19.959
5 1    4.455    2.750  -23.011
6 1    7.395    3.934  -25.090
7 1   10.110    5.098  -21.884
8 1    8.623    1.492  -27.111
9 1   12.631    2.178  -25.568
10 1   13.201    7.129  -25.543
11 1   15.147    0.330  -27.149
12 1   17.448    0.357  -24.114
13 1   15.108   -2.429  -20.868
14 1   20.976   -0.608  -24.186
15 1   21.122   -2.338  -20.287
16 1   17.965   -4.658  -20.756
17 1   24.029   -3.716  -18.408
18 1   21.556   -5.260  -15.840
19 1   17.220   -4.112  -16.266
20 1   22.430   -6.806  -12.730
21 1   19.227   -9.528  -12.694
22 1   15.742   -7.282  -15.056
23 1   18.012  -11.614  -10.374
24 1   17.220   -9.008   -7.658
25 1   13.373  -10.574   -7.871
26 1   17.373   -5.352   -8.785
27 1   20.093   -3.751   -5.980
28 1   24.320   -4.627   -8.678
29 1   20.025   -0.222   -5.253
30 1   22.919   -0.479   -2.938
31 1   25.486   -2.958   -5.481
32 1   10.450   36.064   31.328
33 1   15.318   35.735   31.117
34 1    8.932   33.243   31.425
35 1    5.715   35.223   30.163
36 1    7.884   36.845   27.014
37 1    2.653   33.857   29.795
38 1    1.542   36.809   28.112
39 1    4.731   36.881   24.224
40 1   -1.556   36.843   27.169
41 1   -0.910   39.775   24.406
42 1    1.469   37.754   22.004
43 1   -4.058   41.332   22.683
44 1   -3.302   40.138   19.265
45 1    1.170   40.867   19.136
46 1   -5.270   41.032   16.551
47 1   -4.226   38.194   14.390
48 1    0.497   37.961   14.269
49 1   -5.769   37.903   11.602
50 1   -5.021   34.599   11.726
51 1   -6.419   33.533   15.079
52 1   -5.882   32.623    8.870
53 1   -5.640   29.014   11.199
54 1   -8.454   30.356   13.841
55 1   -6.074   25.796   10.158
56 1   -6.295   24.161   13.579
57 1   -8.415   27.212   17.117
58 1   -7.099   21.070   13.634
59 1   -8.249   20.602   17.183
60 1  -10.724   24.192   17.758
61 1   -9.661   17.522   17.740
62 1  -10.964   18.122   21.174
63 1  -12.759   22.672   21.149
ITEM: TIMESTEP
13
ITEM: NUMBER OF ATOMS
63
ITEM: BOX BOUNDS pp pp pp
-42.39109802246094 43.122901916503906
-7.640860080718994 77.87313842773438
-30.620100021362305 54.893898010253906
ITEM: ATOMS id type xu yu zu
1 1   30.107   23.107  -13.847
2 1   31.170   24.310   -9.586
3 1   26.837   20.834  -14.181
4 1   28.925   18.218  -12.794
5 1   27.369   14.510  -12.854
6 1   29.275   13.326   -9.347
7 1   30.413   17.645   -8.424
8 1   27.603   11.500   -7.183
9 1   28.477    8.255   -8.888
10 1   33.104    8.862  -10.782
11 1   27.942    5.124   -7.255
12 1   30.387    3.316   -9.117
13 1   34.379    5.798   -8.512
14 1   30.836    0.180   -8.700
15 1   34.390   -0.035  -10.277
16 1   35.817    2.585   -7.529
17 1   36.336   -2.848  -10.473
18 1   39.641   -1.631   -9.938
19 1   39.487    1.201   -5.679
20 1   42.494   -3.841  -10.228
21 1  -40.644   -1.344   -8.249
22 1   42.564    0.233   -4.231
23 1  -37.399   -1.775   -8.184
24 1  -37.026    0.858   -5.832
25 1  -39.877   -1.444   -3.029
26 1  -33.581    2.102   -4.589
27 1  -34.583    2.848   -0.453
28 1  -36.867   -1.284    1.080
29 1  -31.993    3.766    1.939
30 1  -33.453    1.364    5.430