ITEM: TIMESTEP
0
ITEM: NUMBER OF ATOMS
63
ITEM: BOX BOUNDS pp pp pp
-28.357101440429688 57.156898498535156
-41.93950271606445 43.57449722290039
-42.73910140991211 42.774898529052734
ITEM: ATOMS id type xu yu zu
1 1    2.305  -26.757   42.497
2 1   -1.792  -28.311   41.264
3 1    2.474  -24.400  -39.848
4 1    2.396  -27.261  -37.299
5 1   -0.274  -30.249  -38.745
6 1    5.738  -28.905  -36.200
7 1    4.797  -32.690  -35.059
8 1    1.521  -33.314  -37.788
9 1    7.200  -35.204  -34.588
10 1    8.256  -36.122  -38.213
11 1   10.982  -38.586  -39.356
12 1   10.636  -37.503  -42.739
13 1   15.057  -37.199   41.598
14 1    8.708  -34.813   42.140
15 1    9.853  -34.704   38.191
16 1   13.438  -36.011   38.543
17 1    7.513  -36.043   35.630
18 1    4.813  -34.186   36.849
19 1    6.434  -31.167   39.811
20 1    1.865  -35.375   37.558
21 1    1.052  -36.061   34.197
22 1   -2.003  -39.361   35.372
23 1   -0.190  -33.863   32.373
24 1   -2.359  -35.900   30.303
25 1   -4.379  -37.085   33.748
26 1   -4.201  -34.119   28.580
27 1   -6.266  -36.955   27.372
28 1   -7.686  -39.017   31.762
29 1   -5.325  -39.564   24.556
30 1   -7.375  -41.839   25.989
31 1   -5.117  -41.940   29.780
32 1  -16.657   -2.296   -9.308
33 1  -12.385   -2.974   -8.149
34 1  -17.371   -5.781  -10.906
35 1  -13.815   -6.604  -11.545
36 1  -12.433   -6.548   -7.960
37 1  -13.042   -9.532  -13.250
38 1   -9.139  -10.074  -11.202
39 1   -9.664   -9.664   -6.968
40 1   -7.655  -13.395  -11.766
41 1   -7.595  -14.261   -7.592
42 1  -11.265  -12.789   -7.237
43 1   -6.558  -17.575   -6.191
44 1   -9.706  -17.441   -2.951
45 1  -13.328  -16.878   -5.389
46 1   -9.651  -20.529   -0.676
47 1   -9.461  -23.199   -3.121
48 1  -12.843  -22.360   -6.961
49 1   -9.776  -26.625   -1.833
50 1  -12.809  -27.610   -3.454
51 1  -11.924  -26.067   -6.932
52 1  -14.472  -31.195   -3.582
53 1  -14.611  -31.582   -7.682
54 1  -15.343  -27.451   -7.798
55 1  -16.418  -33.846   -9.682
56 1  -20.133  -32.039   -8.336
57 1  -20.427  -27.608  -10.145
58 1  -22.995  -33.780   -9.017
59 1  -25.420  -30.539  -10.418
60 1  -22.468  -29.059  -12.855
61 1  -28.357  -31.288  -11.853
62 1  -26.567  -33.744  -13.958
63 1  -23.473  -31.082  -16.341
ITEM: TIMESTEP
1
ITEM: NUMBER OF ATOMS
63
ITEM: BOX BOUNDS pp pp pp
-41.815101623535156 43.69889831542969
10.125399589538574 95.63939666748047
-43.316898345947266 42.19710159301758
ITEM: ATOMS id type xu yu zu
1 1   25.290   13.896  -31.833
2 1   26.538   10.125  -33.889
3 1   24.817   16.552  -33.621
4 1   26.400   18.883  -31.672
5 1   31.005   17.027  -30.909
6 1   26.507   21.992  -32.331
7 1   29.323   23.084  -29.746
8 1   32.092   20.597  -30.989
9 1   30.236   26.350  -29.662
10 1   34.020   25.438  -28.061
11 1   36.304   22.927  -29.211
12 1   39.137   25.132  -30.079
13 1   41.998   22.325  -32.522
14 1   38.863   28.239  -30.992
15 1   42.584   27.871  -33.034
16 1   42.095   24.697  -35.220
17 1  -41.641   30.747  -34.671
18 1  -39.590   28.837  -36.958
19 1  -41.815   24.986  -38.955
20 1  -37.252   29.873  -38.719
21 1  -36.942   26.023  -40.292
22 1  -40.812   25.178  -42.492
23 1  -34.460   26.130  -42.196
24 1  -35.374   22.647   41.158
25 1  -38.403   24.730   40.228
26 1  -33.210   21.488   39.176
27 1  -35.563   20.502   36.327
28 1  -37.981   24.231   35.895
29 1  -33.847   19.042   33.182
30 1  -36.813   19.711   30.822
31 1  -36.651   23.393   32.521
32 1   42.100   31.621   32.488
33 1  -40.302   27.965   33.789
34 1   38.613   30.325   32.669
35 1   38.952   26.725   32.716
36 1   42.157   26.900   35.388
37 1   36.134   24.654   33.898
38 1   38.305   21.536   35.737
39 1   41.793   23.629   38.151
40 1   36.880   19.267   37.965
41 1   40.053   18.357   39.145
42 1   40.107   22.232   41.131
43 1   40.513   15.328   41.423
44 1  -41.357   16.376  -43.317
45 1   42.777   19.802  -41.016
46 1  -39.750   14.019  -40.830
47 1  -37.773   17.033  -38.979
48 1  -41.161   19.927  -36.991
49 1  -35.300   15.768  -36.525
50 1  -34.983   18.947  -34.464
51 1  -39.081   19.237  -34.035
52 1  -33.001   18.702  -31.275
53 1  -34.134   22.180  -29.734
54 1  -37.973   20.688  -30.046
55 1  -33.179   23.281  -26.478
56 1  -36.391   24.920  -25.470
57 1  -39.644   22.430  -26.585
58 1  -36.854   26.535  -22.634
59 1  -40.333   26.525  -23.258
60 1  -40.568   22.705  -22.950
61 1   43.186   28.237  -21.199
62 1   40.901   25.011  -20.623
63 1   37.301   25.941  -22.669
ITEM: TIMESTEP
2
ITEM: NUMBER OF ATOMS
63
ITEM: BOX BOUNDS pp pp pp
-6.114730358123779 79.3992691040039
-5.539060115814209 79.97493743896484
8.415289878845215 93.92929077148438
ITEM: ATOMS id type xu yu zu
1 1   -6.115   29.981   13.608
2 1   -6.032   28.023    9.645
3 1   -2.595   30.242   14.810
4 1   -1.366   28.291   11.413
5 1    3.342   29.555    9.974
6 1   -2.652   24.978   10.079
7 1    0.328   23.182   10.263
8 1    2.626   26.263    8.415
9 1    0.420   20.131    8.928
10 1    3.089   19.156   11.221
11 1    4.577   15.880   11.303
12 1    4.736   15.407   15.532
13 1    8.570   12.561   16.145
14 1    4.943   18.520   17.694
15 1    5.550   16.190   21.164
16 1    8.577   14.268   19.508
17 1    5.615   17.884   24.585
18 1    8.335   15.605   25.705
19 1   11.444   15.629   22.198
20 1    9.615   15.486   28.730
21 1   11.544   12.735   27.326
22 1   14.140   14.651   24.362
23 1   12.686   10.334   28.936
24 1   16.008   11.069   29.176
25 1   16.186   11.666   25.052
26 1   18.140    8.134   30.460
27 1   20.843   10.479   32.171
28 1   17.937   14.344   34.097
29 1   23.524    9.236   34.747
30 1   24.274   13.207   36.359
31 1   26.232   11.856   39.769
32 1   14.734   -5.539   17.098
33 1   15.373   -1.224   14.794
34 1   15.265   -5.158   20.738
35 1   16.332   -1.098   20.349
36 1   13.504    0.269   17.690
37 1   16.632    0.951   23.177
38 1   18.123    3.595   20.734
39 1   14.999    3.951   16.902
40 1   19.243    7.036   21.771
41 1   19.050    8.289   17.909
42 1   14.850    7.510   17.760
43 1   19.651   12.052   17.443
44 1   17.205   11.682   14.034
45 1   13.880   11.157   16.048
46 1   16.856   14.468   11.694
47 1   16.497   16.777   14.349
48 1   13.632   15.257   17.457
49 1   15.708   20.073   13.874
50 1   16.728   21.052   17.033
51 1   15.740   17.555   19.206
52 1   15.222   23.845   18.146
53 1   16.187   23.855   21.986
54 1   16.878   19.592   22.135
55 1   18.705   25.701   22.825
56 1   21.227   22.072   23.309
57 1   18.614   19.092   26.138
58 1   24.399   22.204   24.624
59 1   23.739   18.638   25.954
60 1   20.985   19.910   28.968
61 1   26.590   16.508   27.217
62 1   27.474   18.812   30.188
63 1   24.620   22.122   29.214
ITEM: TIMESTEP
3
ITEM: NUMBER OF ATOMS
63
ITEM: BOX BOUNDS pp pp pp
-42.017799377441406 43.49620056152344
-12.04210090637207 73.4719009399414
-14.0718994140625 71.44210052490234
ITEM: ATOMS id type xu yu zu
1 1  -20.216   11.753   -2.595
2 1  -22.756   14.062   -0.160
3 1  -21.484   10.623   -5.380
4 1  -25.168   10.450   -4.481
5 1  -26.274   14.465   -2.904
6 1  -27.865    9.761   -7.368
7 1  -30.275   11.611   -5.277
8 1  -28.006   15.071   -5.962
9 1  -33.936   11.779   -6.364
10 1  -34.671    9.442   -2.830
11 1  -37.704    8.539   -2.594
12 1  -37.043    7.933    1.483
13 1  -36.642   12.119    2.965
14 1  -39.099    6.210    3.148
15 1  -37.866    7.691    6.904
16 1  -38.720   11.839    5.839
17 1  -39.327    5.995   10.146
18 1  -38.672    9.515   12.220
19 1  -42.018   12.410   10.378
20 1  -35.293   11.277   11.351
21 1  -35.220   12.819   15.054
22 1  -39.623   15.019   15.543
23 1  -32.447   14.609   16.801
24 1  -35.165   16.954   19.105
25 1  -37.565   18.129   15.621
26 1  -33.905   19.751   21.096
27 1  -35.762   22.331   18.559
28 1  -34.845   21.212   14.077
29 1  -34.807   25.387   19.017
30 1  -37.357   26.363   16.489
31 1  -35.452   30.154   16.185
32 1  -19.032   -2.132  -14.072
33 1  -16.093    0.529  -11.408
34 1  -18.646   -5.459  -14.048
35 1  -14.427   -5.023  -13.438
36 1  -15.048   -2.791  -10.185
37 1  -12.819   -7.615  -12.928
38 1   -9.672   -5.372  -10.754
39 1   -9.204   -7.350   -6.649
40 1   -9.550   -1.883  -10.396
41 1   -7.208   -1.742   -7.202
42 1  -10.164   -4.116   -5.226
43 1   -5.930    1.049   -5.849
44 1   -7.949    0.539   -2.748
45 1   -7.454   -3.098   -2.400
46 1   -7.328    2.083    0.393
47 1   -9.652   -0.681    2.554
48 1   -7.746   -5.492    1.167
49 1   -9.199   -0.516    5.709
50 1  -10.217   -3.995    6.559
51 1   -7.336   -5.552    4.832
52 1  -10.612   -4.921    9.635
53 1   -9.973   -8.553    8.730
54 1   -5.510   -7.574    7.633
55 1  -10.357  -10.876   10.987
56 1   -6.705  -10.350   12.401
57 1   -3.424  -11.528    8.640
58 1   -6.163  -12.042   15.456
59 1   -3.545   -9.463   16.717
60 1   -5.563   -6.707   13.975
61 1   -0.065   -9.985   15.951
62 1    0.829   -7.828   18.866
63 1   -0.086   -3.123   17.104
ITEM: TIMESTEP
4
ITEM: NUMBER OF ATOMS
63
ITEM: BOX BOUNDS pp pp pp
-11.127300262451172 74.38670349121094
5.309299945831299 90.82330322265625
-42.89140319824219 42.622596740722656
ITEM: ATOMS id type xu yu zu
1 1   16.743    5.632   41.807
2 1   18.286    9.385   40.390
3 1   13.409    5.309   42.050
4 1   13.177    9.234  -41.628
5 1   15.484   12.652   41.124
6 1   10.480   10.575  -40.175
7 1   12.483   14.226  -39.777
8 1   12.480   14.613   41.386
9 1   11.158   16.551  -37.912
10 1   12.593   19.146  -39.736
11 1   12.279   22.486  -38.946
12 1   13.503   23.777   42.771
13 1    9.996   22.129   39.614
14 1   14.297   26.709   42.201
15 1   13.712   26.414   38.436
16 1    9.559   25.343   38.265
17 1   14.569   28.909   36.057
18 1   11.764   27.971   33.279
19 1    7.491   26.720   35.031
20 1   11.204   29.723   30.307
21 1    7.583   27.690   29.613
22 1    4.856   28.289   33.270
23 1    5.651   28.095   26.313
24 1    2.226   27.171   28.126
25 1    2.522   30.406   31.212
26 1   -0.927   26.827   25.875
27 1   -3.397   27.456   28.955
28 1   -1.775   31.268   30.999
29 1   -6.732   27.891   27.951
30 1   -8.286   29.047   31.368
31 1  -11.127   32.476   30.216
32 1    1.121   39.839   38.218
33 1   -3.237   39.690   37.153
34 1    1.419   38.756   41.108
35 1   -1.814   35.660   40.555
36 1   -0.536   34.869   36.812
37 1   -2.240   33.227  -42.891
38 1   -3.425   30.149   39.979
39 1   -0.107   30.742   36.385
40 1   -3.911   26.834   41.472
41 1   -2.831   25.235   37.868
42 1    0.811   27.494   37.847
43 1   -2.943   21.829   37.258
44 1   -0.891   22.307   34.566
45 1    2.341   24.153   36.098
46 1   -0.403   19.638   32.582
47 1    3.187   20.983   31.407
48 1    6.099   22.119   35.243
49 1    5.260   18.986   29.255
50 1    9.103   20.429   30.275
51 1    8.453   19.606   34.748
52 1   12.072   18.988   29.351
53 1   14.333   20.919   32.269
54 1   12.384   18.949   35.277
55 1   17.947   20.436   32.230
56 1   17.901   21.532   35.669
57 1   15.488   17.720   37.557
58 1   21.253   22.094   37.518
59 1   19.982   20.549   40.978
60 1   19.088   16.885   39.073
61 1   22.137   20.697  -41.932
62 1   20.219   17.712  -40.140
63 1   20.310   14.556   42.225
ITEM: TIMESTEP
5
ITEM: NUMBER OF ATOMS
63
ITEM: BOX BOUNDS pp pp pp
-42.34590148925781 43.16809844970703
-41.02539825439453 44.48860168457031
-42.76179885864258 42.752201080322266
ITEM: ATOMS id type xu yu zu
1 1   16.570  -37.205   12.077
2 1   14.445  -34.302   10.449
3 1   17.890  -36.949   15.607
4 1   14.346  -36.656   17.894
5 1   11.507  -39.592   16.732
6 1   14.535  -36.477   22.030
7 1   11.732  -38.957   22.334
8 1    9.224  -37.564   18.646
9 1    9.818  -39.525   25.653
10 1    9.495  -35.757   26.130
11 1    7.811  -34.375   29.064
12 1   11.183  -32.364   30.656
13 1   14.993  -34.389   29.690
14 1   11.309  -30.335   33.560
15 1   14.983  -31.333   34.320
16 1   15.159  -34.753   33.245
17 1   17.517  -29.217   32.979
18 1   20.739  -31.879   33.473
19 1   20.387  -35.426   30.173
20 1   23.589  -31.018   33.313
21 1   25.249  -34.845   33.074
22 1   23.524  -36.123   28.477
23 1   29.027  -35.581   33.277
24 1   29.006  -38.752   31.679
25 1   26.726  -37.370   28.331
26 1   32.186  -41.025   31.246
27 1   29.655   42.305   28.682
28 1   28.566  -40.169   25.492
29 1   30.809   39.671   27.249
30 1   29.101   40.802   23.721
31 1   26.237   42.321   25.353
32 1   29.707   -1.778  -39.449
33 1   25.171   -2.140  -41.032
34 1   31.412   -4.673  -39.520
35 1   33.681   -2.610  -41.771
36 1   34.629    0.540  -38.800
37 1   36.614   -4.344   42.111
38 1   38.640   -1.928   40.979
39 1   38.216    0.969  -40.852
40 1   42.434   -2.756   40.338
41 1  -42.346    0.714   40.389
42 1   42.012    1.102  -40.950
43 1  -39.298    2.109   39.328
44 1  -39.826    5.538   40.947
45 1  -40.691    4.319  -40.937
46 1  -37.778    8.720   40.456
47 1  -34.853    7.046   42.264
48 1  -33.947    3.164   39.780
49 1  -31.849    8.933  -42.639
50 1  -29.225    5.817  -42.727
51 1  -30.592    4.412   38.903
52 1  -25.948    6.559   42.582
53 1  -25.129    2.526  -42.762
54 1  -28.618    1.464   40.417
55 1  -21.950    1.539   40.652
56 1  -22.177   -2.624   41.294
57 1  -26.382   -3.883   41.342
58 1  -20.337   -4.194   38.838
59 1  -22.521   -7.766   39.006
60 1  -25.928   -6.096   38.227
61 1  -21.632  -10.458   36.779
62 1  -24.898  -10.524   35.442
63 1  -25.000   -7.323   32.140
ITEM: TIMESTEP
6
ITEM: NUMBER OF ATOMS
63
ITEM: BOX BOUNDS pp pp pp
-42.620201110839844 42.893798828125
-36.213600158691406 49.30039978027344
-31.427200317382812 54.08679962158203
ITEM: ATOMS id type xu yu zu
1 1   35.359  -23.922  -24.346
2 1   34.137  -27.878  -23.493
3 1   34.007  -22.633  -27.739
4 1   36.984  -23.222  -29.629
5 1   40.232  -24.574  -26.345
6 1   38.615  -20.204  -31.427
7 1   39.667  -18.659  -28.163
8 1   41.797  -21.527  -26.995
9 1   41.434  -15.112  -28.136
10 1  -41.820  -15.958  -25.447
11 1  -38.712  -14.913  -25.524
12 1  -37.106  -18.462  -23.960
13 1  -34.997  -17.349  -19.547
14 1  -34.723  -20.143  -25.410
15 1  -31.615  -18.151  -23.744
16 1  -32.577  -19.995  -20.123
17 1  -28.752  -18.733  -24.656
18 1  -27.034  -18.691  -20.848
19 1  -29.142  -21.431  -17.865
20 1  -23.892  -19.069  -20.764
21 1  -23.664  -20.663  -16.805
22 1  -27.131  -24.264  -16.533
23 1  -20.452  -21.548  -15.345
24 1  -21.778  -23.550  -12.458
25 1  -24.267  -25.529  -14.679
26 1  -19.584  -25.528   -9.880
27 1  -22.827  -28.052   -8.413
28 1  -23.984  -29.598  -12.889
29 1  -21.761  -30.765   -6.733
30 1  -25.721  -32.026   -6.746
31 1  -25.862  -31.798  -10.883
32 1  -25.671  -36.214  -20.266
33 1  -24.535  -34.506  -16.199
34 1  -29.776  -35.841  -20.298
35 1  -29.818  -35.173  -16.649
36 1  -27.283  -32.293  -16.990
37 1  -33.439  -34.746  -14.996
38 1  -32.619  -32.305  -12.692
39 1  -29.668  -29.646  -14.759
40 1  -35.582  -30.491  -11.200
41 1  -33.225  -27.418  -10.080
42 1  -31.770  -26.757  -13.731
43 1  -34.712  -24.299   -8.198
44 1  -31.377  -22.306   -8.758
45 1  -31.647  -22.603  -13.135
46 1  -31.334  -18.726   -7.854
47 1  -29.367  -17.798  -10.462
48 1  -31.966  -18.772  -14.718
49 1  -28.446  -14.740  -10.486
50 1  -27.610  -14.979  -14.557
51 1  -31.418  -15.262  -15.578
52 1  -26.006  -12.460  -16.000
53 1  -29.527  -10.737  -17.996
54 1  -31.961  -11.330  -14.064
55 1  -29.357   -7.637  -19.957
56 1  -33.563   -6.823  -19.573
57 1  -35.233   -9.863  -16.346
58 1  -34.535   -3.541  -19.122
59 1  -38.303   -3.870  -17.911
60 1  -37.490   -7.138  -15.182
61 1  -40.122   -1.406  -16.433
62 1  -42.620   -2.989  -14.290
63 1  -40.925   -7.161  -12.687
ITEM: TIMESTEP
7
ITEM: NUMBER OF ATOMS
63
ITEM: BOX BOUNDS pp pp pp
-42.18000030517578 43.33399963378906
-41.7964973449707 43.71750259399414
-42.89229965209961 42.621700286865234
ITEM: ATOMS id type xu yu zu
1 1  -24.906  -23.437   40.881
2 1  -26.739  -23.343   36.945
3 1  -25.729  -20.919  -42.892
4 1  -22.675  -21.194  -40.402
5 1  -19.390  -23.176   42.548
6 1  -21.373  -18.392  -38.889
7 1  -21.433  -15.992  -42.384
8 1  -25.718  -15.682  -42.060
9 1  -19.648  -13.239  -42.137
10 1  -22.279  -11.908   41.142
11 1  -22.372   -8.638   39.567
12 1  -26.093   -8.456   39.473
13 1  -28.230   -8.370  -41.644
14 1  -27.471   -6.158   37.573
15 1  -30.719   -6.377   39.464
16 1  -29.359   -4.915   42.755
17 1  -33.340   -5.196   38.182
18 1  -34.842   -4.103   41.476
19 1  -31.800   -1.646  -41.612
20 1  -37.534   -2.524   41.267
21 1  -37.207   -0.457  -40.995
22 1  -32.703    1.875  -41.805
23 1  -40.443    1.937  -40.702
24 1  -38.124    5.540  -40.371
25 1  -35.326    4.111   42.431
26 1  -40.495    8.416  -40.764
27 1  -37.942   10.359  -42.569
28 1  -36.076    7.589   39.619
29 1  -38.734   13.700   41.813
30 1  -41.354   12.349   39.498
31 1  -40.001   13.978   36.283
32 1   38.950   42.511  -33.028
33 1   33.838   42.133  -32.629
34 1   40.140  -40.132  -35.607
35 1   36.751  -38.397  -34.742
36 1   34.595  -41.796  -35.958
37 1   36.090  -35.291  -36.705
38 1   32.824  -34.436  -34.221
39 1   34.361  -33.465  -30.008
40 1   30.608  -32.089  -35.202
41 1   31.641  -29.080  -32.038
42 1   35.551  -30.438  -31.769
43 1   31.259  -25.562  -32.699
44 1   34.788  -25.011  -33.062
45 1   36.493  -26.636  -29.916
46 1   36.405  -21.277  -33.847
47 1   40.116  -22.646  -33.165
48 1   40.289  -25.101  -28.896
49 1  -42.180  -20.821  -34.080
50 1  -42.123  -19.064  -30.794
51 1   42.629  -22.606  -28.214
52 1  -39.246  -17.520  -29.729
53 1  -39.843  -17.791  -26.056
54 1  -40.112  -22.181  -25.754
55 1  -37.604  -16.013  -23.873
56 1  -38.646  -18.204  -20.365
57 1  -37.433  -22.159  -21.355
58 1  -37.582  -17.039  -16.832
59 1  -37.752  -20.209  -15.614
60 1  -35.383  -21.714  -18.173
61 1  -37.298  -20.721  -11.985
62 1  -40.466  -18.769  -11.256
63 1  -40.604  -15.210  -14.072
ITEM: TIMESTEP
8
ITEM: NUMBER OF ATOMS
63
ITEM: BOX BOUNDS pp pp pp
-32.744300842285156 52.76969909667969
-39.34629821777344 46.167701721191406
-21.375598907470703 64.13839721679688
ITEM: ATOMS id type xu yu zu
1 1  -17.476  -35.005  -16.042
2 1  -16.977  -39.346  -16.220
3 1  -18.648  -33.023  -19.109
4 1  -16.378  -29.489  -18.178
5 1  -17.219  -28.925  -13.918
6 1  -16.841  -26.721  -19.897
7 1  -13.863  -25.115  -18.830
8 1  -11.214  -27.271  -21.376
9 1  -14.022  -21.833  -19.218
10 1  -10.139  -21.221  -19.116
11 1   -9.204  -17.621  -20.319
12 1   -6.151  -17.346  -18.227
13 1   -3.814  -21.181  -19.580
14 1   -4.053  -14.533  -18.426
15 1   -0.854  -16.208  -16.665
16 1   -0.597  -19.726  -19.508
17 1    2.185  -14.560  -16.811
18 1    4.129  -17.643  -15.248
19 1    2.015  -21.860  -17.192
20 1    7.272  -18.157  -15.576
21 1    7.156  -21.604  -13.166
22 1    3.365  -24.400  -14.480
23 1    9.928  -23.477  -12.529
24 1    7.635  -26.593  -10.942
25 1    5.962  -26.985  -14.447
26 1    9.147  -29.065  -10.130
27 1    6.401  -31.419  -11.468
28 1    6.413  -30.905  -16.458
29 1    6.805  -34.491  -10.815
30 1    5.640  -35.543  -13.914
31 1    9.017  -33.407  -15.510
32 1  -26.124    3.500   27.682
33 1  -30.055    3.839   25.591
34 1  -23.638    6.453   26.803
35 1  -26.146    8.029   24.258
36 1  -29.215    7.262   26.581
37 1  -25.801   11.545   23.321
38 1  -29.664   11.527   21.418
39 1  -32.744   12.748   24.892
40 1  -30.031   13.102   18.432
41 1  -27.314   15.907   19.363
42 1  -25.190   14.243   16.662
43 1  -27.622   19.794   18.866
44 1  -23.470   20.895   18.864
45 1  -22.379   17.525   16.574
46 1  -22.553   21.198   21.994
47 1  -18.728   20.842   20.967
48 1  -18.360   23.438   16.879
49 1  -16.116   21.199   22.977
50 1  -13.156   22.115   20.590
51 1  -15.311   24.745   18.587
52 1  -10.104   23.457   22.336
53 1  -12.058   26.593   23.613
54 1  -13.603   27.658   20.068
55 1  -10.825   28.935   26.247
56 1  -11.460   32.442   23.993
57 1  -10.987   35.188   27.480
58 1  -14.187   32.970   22.405
59 1  -12.726   35.776   20.701
60 1  -11.374   36.941   24.235
61 1  -14.376   38.175   18.516
62 1  -13.891   41.476   20.662
63 1  -14.026   40.653   24.961
ITEM: TIMESTEP
9
ITEM: NUMBER OF ATOMS
63
ITEM: BOX BOUNDS pp pp pp
-41.494197845458984 44.01980209350586
-42.17399978637695 43.34000015258789
-42.71379852294922 42.800201416015625
ITEM: ATOMS id type xu yu zu
1 1   29.014   36.599  -39.291
2 1   30.290   37.194   42.709
3 1   24.927   36.842  -38.835
4 1   23.775   36.363  -42.714
5 1   27.329   38.482   39.808
6 1   20.185   37.501   41.775
7 1   21.677   41.655   40.968
8 1   24.696   40.348   38.046
9 1   19.924  -41.441   39.999
10 1   17.498   41.949   38.202
11 1   18.146   38.538   37.984
12 1   18.173   39.008   33.889
13 1   21.411   35.581   32.048
14 1   15.667   38.732   32.217
15 1   17.101   35.332   30.808
16 1   19.822   36.944   28.898
17 1   15.109   33.204   29.024
18 1   15.510   34.470   25.696
19 1   12.704   31.780   22.933
20 1   15.072   38.199   24.999
21 1   14.183   37.666   21.033
22 1   11.375   34.368   20.571
23 1   13.235   40.680   18.373
24 1    9.438   41.434   20.038
25 1    8.829   37.163   20.522
26 1    7.036  -42.077   18.318
27 1    4.417  -42.174   21.695
28 1    1.642  -37.999   20.830
29 1    2.676   40.827   22.702
30 1    0.935   40.374   19.296
31 1    0.732  -40.789   18.816
32 1   31.381  -27.050   10.589
33 1   34.059  -22.860    9.989
34 1   28.814  -26.618   12.871
35 1   31.739  -25.562   16.025
36 1   34.546  -24.071   13.444
37 1   32.872  -28.034   18.355
38 1   34.265  -25.822   20.786
39 1   34.248  -21.518   18.209
40 1   32.711  -25.674   23.992
41 1   33.660  -21.806   24.816
42 1   37.522  -21.500   22.934
43 1   33.021  -20.147   28.372
44 1   33.210  -16.992   26.639
45 1   37.101  -17.983   25.108
46 1   33.383  -14.264   28.498
47 1   32.453  -11.606   25.399
48 1   34.889   -7.522   25.856
49 1   32.536  -12.402   21.674
50 1   33.433   -9.069   20.734
51 1   36.651   -8.762   22.817
52 1   33.215   -7.805   17.299
53 1   34.707   -4.418   17.667
54 1   37.886   -6.498   19.979
55 1   35.809   -2.304   14.763
56 1   38.708   -0.399   16.755
57 1   39.674   -2.677   20.741
58 1   38.192    3.113   17.032
59 1   40.422    3.702   20.406
60 1   42.566   -0.480   20.500
61 1   42.054    6.946   21.389
62 1  -40.451    5.373   23.969
63 1  -41.494    0.480   24.263
ITEM: TIMESTEP
10
ITEM: NUMBER OF ATOMS
63
ITEM: BOX BOUNDS pp pp pp
9.433910369873047 94.94790649414062
-41.32320022583008 44.190799713134766
-32.947200775146484 52.56679916381836
ITEM: ATOMS id type xu yu zu
1 1   33.041   12.224  -30.030
2 1   32.996   15.324  -32.947
3 1   32.747   13.095  -26.811
4 1   35.397   15.420  -26.733
5 1   34.903   18.412  -30.200
6 1   35.445   17.311  -23.135
7 1   31.613   18.839  -23.917
8 1   32.848   20.218  -27.359
9 1   30.383   21.369  -21.898
10 1   28.122   22.973  -24.951
11 1   25.450   25.336  -24.407
12 1   23.938   23.753  -20.891
13 1   26.749   24.866  -17.590
14 1   20.775   24.341  -19.966
15 1   21.420   24.142  -16.311
16 1   24.025   27.027  -15.909
17 1   18.821   24.744  -14.321
18 1   18.586   28.575  -15.572
19 1   14.646   30.406  -13.419
20 1   21.175   30.543  -14.761
21 1   19.473   34.071  -15.645
22 1   15.264   34.003  -13.745
23 1   20.905   37.028  -14.342
24 1   17.494   39.353  -14.129
25 1   14.857   36.383  -16.539
26 1   16.215   39.695  -11.155
27 1   12.591   41.638  -12.541
28 1   11.772   39.434  -16.681
29 1    9.434   41.890  -10.468
30 1   11.487   40.818   -7.141
31 1   10.215   36.493   -6.789
32 1   28.810   39.180   -8.275
33 1   27.960  -41.323   -8.624
34 1   32.137   38.361   -7.088
35 1   32.387   34.367   -8.143
36 1   29.144   33.305   -5.693
37 1   35.590   32.729   -7.184
38 1   35.181   33.976   -3.547
39 1   31.456   32.021   -2.540
40 1   37.617   33.536   -0.751
41 1   35.069   34.841    2.075
42 1   31.989   33.127    0.860
43 1   35.964   34.307    5.524
44 1   32.382   35.013    6.614
45 1   30.723   31.390    4.478
46 1   31.974   35.331   10.039
47 1   30.006   31.450   10.366
48 1   31.934   28.328    7.164
49 1   29.937   29.594   13.574
50 1   27.692   26.625   11.755
51 1   30.870   25.462    9.162
52 1   26.349   23.888   14.006
53 1   26.096   21.150   10.872
54 1   30.198   21.661    9.355
55 1   24.766   18.103   11.340
56 1   26.797   15.971    8.692
57 1   31.020   17.302    8.630
58 1   26.333   12.670    7.748
59 1   28.860   11.026   10.279
60 1   31.975   13.794    8.965
61 1   29.549    7.276    9.826
62 1   33.797    8.118    9.710
63 1   34.456   12.537   12.216
ITEM: TIMESTEP
11
ITEM: NUMBER OF ATOMS
63
ITEM: BOX BOUNDS pp pp pp
-34.7067985534668 50.80720138549805
-9.057600021362305 76.4563980102539
-41.967803955078125 43.54619598388672
ITEM: ATOMS id type xu yu zu
1 1  -20.305   -5.042   14.300
2 1  -16.900   -6.926   12.138
3 1  -21.762   -6.936   16.974
4 1  -18.571   -6.872   18.906
5 1  -15.579   -8.921   16.012
6 1  -18.378   -8.155   21.728
7 1  -15.204   -6.339   22.438
8 1  -13.566   -6.791   18.671
9 1  -13.381   -7.148   25.393
10 1  -12.999   -3.089   26.705
11 1  -11.146   -1.977   29.586
12 1  -13.639    0.350   30.425
13 1  -17.127   -0.777   27.554
14 1  -13.216    4.432   29.933
15 1  -16.879    5.336   29.380
16 1  -18.693    1.982   29.209
17 1  -18.622    8.055   31.109
18 1  -22.256    6.801   30.421
19 1  -22.620    1.889   30.976
20 1  -25.148    8.700   31.712
21 1  -27.826    5.674   31.576
22 1  -25.158    2.309   33.508
23 1  -31.280    6.125   33.332
24 1  -31.834    2.414   33.514
25 1  -28.304    2.060   35.665
26 1  -34.707    0.865   34.739
27 1  -32.735   -2.465   35.901
28 1  -29.456   -0.837   38.256
29 1  -34.617   -4.813   37.531
30 1  -32.154   -6.061   39.679
31 1  -31.323   -2.782   40.889
32 1  -23.190    1.356  -38.596
33 1  -26.944    0.418  -41.583
34 1  -19.977   -0.751  -39.649
35 1  -22.054   -3.525  -41.968
36 1  -24.407   -0.846   41.611
37 1  -20.166   -5.770   41.731
38 1  -23.385   -6.677   39.434
39 1  -24.869   -2.505   37.611
40 1  -22.797   -9.058   36.631
41 1  -25.294   -7.441   34.300
42 1  -23.458   -3.470   34.546
43 1  -25.657   -9.037   30.927
44 1  -26.564   -6.063   29.298
45 1  -23.445   -3.505   30.182
46 1  -27.871   -6.018   25.986
47 1  -26.976   -2.292   25.262
48 1  -22.873   -1.014   27.059
49 1  -26.779   -1.037   22.026
50 1  -24.736    1.613   22.753
51 1  -21.196   -0.668   23.651
52 1  -24.146    3.685   19.910
53 1  -20.785    4.703   21.212
54 1  -19.188    0.632   20.618
55 1  -18.988    7.254   19.237
56 1  -15.759    6.398   20.064
57 1  -15.439    2.148   19.108
58 1  -13.175    8.304   18.799
59 1  -10.266    5.412   19.610
60 1  -12.319    2.474   17.531
61 1   -6.368    5.422   19.645
62 1   -5.864    9.242   18.524
63 1   -2.894    8.172   14.471
ITEM: TIMESTEP
12
ITEM: NUMBER OF ATOMS
63
ITEM: BOX BOUNDS pp pp pp
-40.135498046875 45.378501892089844
-42.948299407958984 42.56570053100586
-42.552398681640625 42.96160125732422
ITEM: ATOMS id type xu yu zu
1 1   10.586  -42.948  -28.875
2 1   12.332   41.119  -25.940
3 1   12.506  -40.903  -31.506
4 1   12.844   41.891  -34.102
5 1    8.556   41.281  -34.869
6 1   14.468   42.415  -37.564
7 1   13.008   38.607  -39.236
8 1    8.848   38.920  -37.663
9 1   13.731   37.589  -42.552
10 1   10.923   35.219   42.698
11 1   10.398   32.784   39.918
12 1   10.511   35.668   36.561
13 1   10.724   40.614   37.765
14 1   11.720   35.035   33.749
15 1   11.012   38.563   32.214
16 1   12.497   41.302   34.679
17 1   12.253   38.684   29.379
18 1   12.603   42.533   28.898
19 1   15.245  -41.733   32.476
20 1   13.874  -41.811   26.318
21 1   15.438  -38.818   28.217
22 1   18.150  -39.620   31.769
23 1   16.410  -35.968   26.334
24 1   19.987  -36.915   25.337
25 1   20.217  -39.123   28.931
26 1   20.953  -38.310   22.025
27 1   25.003  -38.645   23.024
28 1   24.018  -40.265   27.284
29 1   27.257  -41.067   21.043
30 1   25.060   41.155   21.286
31 1   24.241   41.915   25.810
32 1  -29.999  -21.060    3.231
33 1  -30.883  -25.392    4.047
34 1  -27.094  -20.983    1.815
35 1  -28.445  -21.251   -1.849
36 1  -30.561  -17.743   -1.483
37 1  -26.354  -21.276   -4.561
38 1  -29.295  -19.973   -7.182
39 1  -33.321  -18.538   -4.996
40 1  -28.602  -18.214  -10.314
41 1  -32.637  -17.990  -11.519
42 1  -33.627  -15.867   -7.915
43 1  -33.340  -16.259  -14.533
44 1  -36.876  -14.655  -13.058
45 1  -35.540  -12.804   -9.707
46 1  -38.952  -12.464  -15.512
47 1  -37.560  -13.548  -18.271
48 1  -34.807   -9.602  -19.909
49 1  -39.879  -14.520  -21.127
50 1  -38.727  -11.330  -23.052
51 1  -35.066  -11.450  -23.263
52 1  -40.135   -9.939  -25.785
53 1  -36.906   -8.330  -27.326
54 1  -34.617  -11.818  -26.910
55 1  -37.284   -6.631  -30.908
56 1  -34.440   -4.322  -30.481
57 1  -34.437   -2.768  -26.242
58 1  -31.496   -5.723  -31.279
59 1  -28.917   -2.648  -29.800
60 1  -30.898   -3.115  -26.467
61 1  -25.517   -3.212  -29.707
62 1  -24.593    0.472  -28.642
63 1  -28.524    2.328  -29.562
ITEM: TIMESTEP
13
ITEM: NUMBER OF ATOMS
63
ITEM: BOX BOUNDS pp pp pp
-42.64249801635742 42.87150192260742
-41.71209716796875 43.801902770996094
-37.463401794433594 48.05059814453125
ITEM: ATOMS id type xu yu zu
1 1  -10.259  -37.118   30.661
2 1  -10.841  -39.923   33.349
3 1   -7.470  -35.507   30.298
4 1   -6.049  -36.798   33.620
5 1   -6.993  -41.712   34.014
6 1   -2.149  -36.125   34.875
7 1   -2.383  -38.949   36.991
8 1   -5.180  -37.728   39.147
9 1    0.337  -40.090   38.335
10 1    2.600  -39.735   35.020
11 1    1.544  -39.389   32.033
12 1    4.434  -41.367   30.273
13 1    4.636   39.998   32.171
14 1    4.329  -41.553   26.927
15 1    6.175   40.074   26.333
16 1    7.605   39.812   29.965
17 1    8.672   39.838   24.020
18 1    8.114   36.458   23.465
19 1    3.002   35.792   23.885
20 1    9.086   34.718   20.575
21 1    5.769   32.113   20.360
22 1    2.384   35.138   20.245
23 1    5.176   29.586   17.518
24 1    0.900   29.237   17.858
25 1    0.270   33.463   17.222
26 1   -1.253   26.881   15.515
27 1   -4.776   28.445   16.105
28 1   -5.385   31.187   11.964
29 1   -7.213   26.193   16.780
30 1   -8.886   26.747   12.928