ITEM: TIMESTEP
0
ITEM: NUMBER OF ATOMS
63
ITEM: BOX BOUNDS pp pp pp
-36.84250259399414 48.6714973449707
-35.54570007324219 49.968299865722656
-11.630400657653809 73.88359832763672
ITEM: ATOMS id type xu yu zu
1 1   -5.219  -13.925    1.264
2 1   -8.738  -15.041   -0.686
3 1   -2.463  -14.039   -0.474
4 1   -3.613  -16.113   -3.434
5 1   -7.290  -14.196   -4.757
6 1   -1.573  -16.884   -6.099
7 1   -4.517  -18.144   -8.326
8 1   -6.434  -14.509   -8.396
9 1   -3.619  -19.942  -11.515
10 1   -4.115  -23.656  -10.124
11 1   -8.469  -23.616   -8.938
12 1   -3.020  -26.416  -11.630
13 1   -5.548  -29.098   -9.764
14 1   -9.907  -28.266  -11.607
15 1   -4.618  -32.892   -9.786
16 1   -0.723  -33.391   -8.736
17 1    0.089  -34.274   -5.697
18 1    3.675  -32.132   -6.116
19 1    7.935  -35.037   -6.644
20 1    4.338  -29.528   -3.941
21 1    0.605  -28.576   -2.937
22 1   -0.982  -26.124   -6.663
23 1    0.563  -26.228   -0.046
24 1   -0.375  -28.783    2.709
25 1   -3.458  -26.133    4.593
26 1   -1.558  -32.341    1.878
27 1   -2.795  -32.865    5.181
28 1   -5.944  -29.777    5.801
29 1   -0.484  -32.708    8.002
30 1   -2.844  -32.528   11.325
31 1   -6.477  -31.562    8.951
32 1   -7.350  -25.039   22.142
33 1  -10.189  -28.041   24.339
34 1   -6.553  -25.758   18.459
35 1   -9.043  -28.639   18.040
36 1   -8.422  -29.953   21.716
37 1   -8.846  -31.044   15.472
38 1  -12.383  -32.387   16.147
39 1  -12.127  -33.291   20.857
40 1  -13.823  -35.546   14.439
41 1  -15.991  -33.887   11.579
42 1  -19.254  -34.950   13.199
43 1  -15.672  -31.059   10.850
44 1  -19.421  -30.632    8.890
45 1  -22.009  -32.056   12.061
46 1  -20.551  -27.437    7.233
47 1  -24.501  -28.111    8.097
48 1  -24.972  -27.955   12.490
49 1  -27.003  -26.135    6.671
50 1  -28.320  -25.375    9.866
51 1  -28.299  -29.454   11.619
52 1  -31.278  -23.093   10.814
53 1  -31.362  -23.737   14.749
54 1  -30.841  -27.957   13.934
55 1  -28.382  -21.821   16.857
56 1  -28.347  -25.076   19.635
57 1  -29.654  -29.820   17.801
58 1  -30.093  -24.958   22.731
59 1  -32.732  -27.062   21.447
60 1  -30.459  -31.004   21.395
61 1  -35.490  -27.586   23.149
62 1  -36.843  -30.042   19.799
63 1  -33.270  -33.492   19.446
ITEM: TIMESTEP
1
ITEM: NUMBER OF ATOMS
63
ITEM: BOX BOUNDS pp pp pp
-6.737819671630859 78.77618408203125
-22.81529998779297 62.698699951171875
-33.72420120239258 51.789798736572266
ITEM: ATOMS id type xu yu zu
1 1   -2.835    9.769  -24.007
2 1   -5.816    7.035  -25.381
3 1   -0.320    8.508  -22.362
4 1   -1.607    5.329  -20.855
5 1   -3.264    3.799  -24.756
6 1    0.537    2.838  -19.285
7 1   -0.995   -0.041  -20.953
8 1   -0.477    1.581  -24.799
9 1    0.152   -3.369  -20.122
10 1    0.963   -4.299  -23.468
11 1    3.440   -0.344  -25.152
12 1    2.536   -7.453  -24.611
13 1    4.931   -5.866  -27.069
14 1    6.880   -1.878  -25.811
15 1    6.536   -7.664  -29.424
16 1    9.518   -8.642  -26.915
17 1   12.279  -10.391  -28.230
18 1   10.318  -13.943  -28.525
19 1    5.643  -12.708  -30.065
20 1   11.331  -16.768  -30.632
21 1    8.205  -17.973  -30.794
22 1    5.988  -17.787  -26.570
23 1    6.291  -18.008  -33.724
24 1    2.969  -19.135  -31.946
25 1    4.519  -20.714  -28.185
26 1   -0.041  -17.001  -32.291
27 1   -2.475  -19.386  -30.332
28 1   -5.546  -19.642  -33.320
29 1   -1.220  -22.522  -29.832
30 1   -4.362  -22.815  -27.356
31 1   -6.738  -20.813  -29.953
32 1    0.556   16.535   11.422
33 1   -0.485   13.034   13.894
34 1   -1.689   17.060    8.927
35 1   -2.352   13.075    8.330
36 1   -3.668   12.564   12.275
37 1   -4.936   12.210    5.587
38 1   -4.980    8.305    6.325
39 1   -1.267    6.294    3.863
40 1   -5.483    6.706    9.666
41 1   -3.606    3.590    8.973
42 1   -0.008    5.753    7.553
43 1   -3.426    1.610   11.638
44 1   -0.348   -0.371   11.092
45 1    1.770    2.217    9.384
46 1    1.148   -2.150   13.885
47 1    5.021   -1.481   12.467
48 1    5.510    3.089   11.852
49 1    7.659   -2.857   13.915
50 1    9.509   -0.664   11.972
51 1    8.444    3.314   13.966
52 1    8.639   -0.948    8.362
53 1   11.418    1.837    7.731
54 1   11.109    4.302   11.350
55 1   11.292    3.348    4.844
56 1    8.778    0.533    3.792
57 1    4.687    3.268    4.065
58 1    9.281   -0.575    0.418
59 1    5.679   -2.121    0.105
60 1    4.283    1.378    0.952
61 1    4.347   -3.243   -2.661
62 1    0.435   -2.087   -1.415
63 1    0.860    2.775   -1.514
ITEM: TIMESTEP
2
ITEM: NUMBER OF ATOMS
63
ITEM: BOX BOUNDS pp pp pp
-15.429600715637207 70.08439636230469
-31.32400131225586 54.189998626708984
-43.71730041503906 41.79669952392578
ITEM: ATOMS id type xu yu zu
1 1   -7.264   12.529    0.585
2 1  -11.068   13.618   -1.299
3 1   -7.699    9.749    2.242
4 1  -11.427   11.224    3.668
5 1  -12.211   15.181    2.391
6 1  -14.290    9.015    3.847
7 1  -12.467    6.164    5.187
8 1  -10.477    8.844    7.783
9 1  -14.014    3.364    6.262
10 1  -13.145    4.163   10.177
11 1  -12.905    8.979   11.113
12 1  -13.714    2.381   12.573
13 1  -11.213    3.651   14.442
14 1  -11.530    8.112   14.565
15 1   -7.746    2.582   14.138
16 1   -6.310    5.643   15.685
17 1   -2.705    6.459   15.778
18 1   -2.646    8.326   19.396
19 1   -6.888    9.372   20.611
20 1   -0.609   10.458   20.644
21 1   -3.355   12.880   21.860
22 1   -6.865   12.768   19.319
23 1   -2.655   16.231   23.192
24 1   -6.111   16.303   25.058
25 1   -8.066   15.451   21.591
26 1   -7.521   19.264   26.591
27 1  -10.912   17.583   26.844
28 1  -13.477   19.846   23.173
29 1  -11.523   14.064   26.462
30 1  -15.430   15.058   26.269
31 1  -15.086   16.731   22.354
32 1   22.469  -28.713  -38.591
33 1   23.999  -26.503  -34.896
34 1   20.321  -31.324  -37.624
35 1   17.560  -28.286  -36.726
36 1   20.641  -25.152  -35.635
37 1   15.109  -27.484  -39.177
38 1   15.223  -23.195  -38.315
39 1   20.064  -22.117  -38.632
40 1   13.148  -20.783  -40.123
41 1   15.419  -17.937  -38.723
42 1   18.392  -19.358  -40.364
43 1   15.169  -14.310  -38.947
44 1   19.277  -13.921  -38.895
45 1   19.736  -14.653  -42.927
46 1   20.382  -10.569  -37.981
47 1   24.405  -11.725  -39.226
48 1   23.775  -14.001  -43.717
49 1   27.324   -9.116  -39.308
50 1   28.957  -10.579   42.672
51 1   25.426  -10.773   40.685
52 1   31.217   -8.698   41.169
53 1   31.257  -10.994   37.550
54 1   27.142  -11.491   37.402
55 1   32.470   -9.697   34.572
56 1   30.571  -11.611   32.167
57 1   26.320  -10.755   33.366
58 1   31.154  -11.311   28.991
59 1   28.350  -13.198   28.260
60 1   25.278  -10.177   29.898
61 1   27.421  -14.432   25.205
62 1   23.882  -16.330   26.716
63 1   24.477  -15.782   31.541
ITEM: TIMESTEP
3
ITEM: NUMBER OF ATOMS
63
ITEM: BOX BOUNDS pp pp pp
-8.990479469299316 76.52352142333984
-43.1858024597168 42.32819747924805
-8.783169746398926 76.73082733154297
ITEM: ATOMS id type xu yu zu
1 1    8.016  -38.732   21.158
2 1    6.746  -42.343   23.444
3 1    9.570  -39.207   18.421
4 1   10.502  -42.719   19.062
5 1    5.988   40.639   20.161
6 1   12.585   40.822   16.258
7 1   11.177   37.308   17.014
8 1    7.498   38.799   17.405
9 1   11.695   34.277   14.737
10 1    7.985   33.104   15.561
11 1    5.379   36.522   14.588
12 1    6.724   30.127   13.791
13 1    3.329   31.208   14.149
14 1    2.577   35.685   12.214
15 1    1.006   29.164   12.706
16 1   -1.499   31.966   12.307
17 1   -4.189   31.627   10.106
18 1   -4.940   35.818    9.309
19 1   -1.867   37.124    6.072
20 1   -8.019   36.565    7.568
21 1   -6.862   39.332    5.155
22 1   -2.952   37.423    2.581
23 1   -8.990   40.434    2.983
24 1   -6.138   42.536    1.048
25 1   -4.397   38.806   -0.336
26 1   -6.514  -40.531   -1.410
27 1   -3.390  -41.331   -3.417
28 1   -4.068   39.859   -5.401
29 1   -2.390  -39.429   -6.057
30 1   -5.063  -40.238   -8.136
31 1   -4.294   41.320   -8.783
32 1   -0.036   27.092   -5.173
33 1   -1.207   31.233   -6.290
34 1    3.053   27.083   -3.526
35 1    3.760   30.982   -4.643
36 1    0.153   32.508   -3.097
37 1    6.582   32.461   -3.535
38 1    5.258   36.439   -3.952
39 1    1.356   36.403   -2.314
40 1    7.252   39.043   -2.781
41 1    4.558   41.434   -1.364
42 1    2.643   38.156    0.642
43 1    5.208  -40.626    0.434
44 1    1.827  -40.660    2.471
45 1    1.773   40.701    3.796
46 1    0.916  -38.171    5.237
47 1   -1.237  -40.643    7.032
48 1    1.664   41.100    7.956
49 1   -2.884  -39.327    9.999
50 1   -3.298  -42.843   11.776
51 1    0.339   40.643   11.337
52 1   -4.537  -43.186   14.683
53 1   -3.585   38.901   15.374
54 1    0.346   39.812   15.047
55 1   -5.083   37.191   18.614
56 1   -1.985   34.317   18.592
57 1    1.617   36.881   18.018
58 1   -1.554   31.702   21.020
59 1    2.100   31.252   20.629
60 1    2.815   35.632   21.491
61 1    4.406   28.661   22.600
62 1    1.356   27.235   24.005
63 1    1.144   22.801   22.259
ITEM: TIMESTEP
4
ITEM: NUMBER OF ATOMS
63
ITEM: BOX BOUNDS pp pp pp
8.492230415344238 94.00623321533203
-42.72590255737305 42.7880973815918
-30.909900665283203 54.60409927368164
ITEM: ATOMS id type xu yu zu
1 1   12.146   37.823  -30.910
2 1   16.105   39.402  -30.448
3 1   10.827   36.731  -27.726
4 1   14.280   35.252  -25.768
5 1   17.366   38.694  -26.437
6 1   14.419   34.217  -21.840
7 1   18.092   34.640  -21.670
8 1   18.223   38.797  -22.244
9 1   19.841   33.441  -18.463
10 1   22.559   35.701  -18.234
11 1   20.732   40.193  -19.061
12 1   24.292   36.042  -15.235
13 1   25.588   39.957  -15.483
14 1   22.074   42.346  -16.164
15 1   27.628   41.477  -12.827
16 1   26.749  -40.833  -13.240
17 1   28.187  -38.789  -10.951
18 1   24.652  -36.381  -10.591
19 1   20.907  -39.019  -10.173
20 1   25.061  -33.950   -8.176
21 1   20.889  -33.621   -7.582
22 1   19.485  -37.788   -6.929
23 1   19.361  -31.443   -5.128
24 1   16.043  -33.358   -5.353
25 1   18.001  -36.653   -3.367
26 1   13.350  -31.965   -3.754
27 1   11.582  -35.213   -2.988
28 1   14.900  -38.271   -0.702
29 1    8.617  -35.039   -0.879
30 1    8.492  -38.932   -0.079
31 1   12.539  -38.491    2.073
32 1   18.171   39.641    6.867
33 1   16.418  -42.050    4.950
34 1   20.006   37.680    4.432
35 1   17.068   37.886    1.744
36 1   17.729   42.480    1.066
37 1   17.108   36.321   -1.208
38 1   14.328   39.213   -2.625
39 1   16.649  -42.556   -3.267
40 1   12.365   38.243   -5.513
41 1   11.866   42.191   -6.931
42 1   16.280  -42.726   -6.903
43 1    9.881  -42.593   -9.263
44 1   11.611  -39.283  -10.560
45 1   15.558  -40.834  -10.575
46 1   10.783  -37.172  -13.639
47 1   14.119  -35.850  -14.468
48 1   17.272  -39.346  -14.078
49 1   14.786  -33.958  -17.735
50 1   18.916  -34.719  -17.968
51 1   18.693  -38.989  -17.636
52 1   21.216  -33.415  -20.609
53 1   23.503  -36.828  -21.022
54 1   20.622  -39.703  -20.948
55 1   25.956  -37.012  -23.804
56 1   26.491  -40.627  -23.215
57 1   22.371  -42.597  -23.914
58 1   29.054   42.805  -25.365
59 1   26.896   38.977  -25.307
60 1   23.318   40.571  -26.683
61 1   27.783   36.343  -27.019
62 1   24.260   34.570  -26.776
63 1   21.158   37.256  -28.347
ITEM: TIMESTEP
5
ITEM: NUMBER OF ATOMS
63
ITEM: BOX BOUNDS pp pp pp
-41.93339920043945 43.58060073852539
4.848939895629883 90.3629379272461
19.92169952392578 105.43569946289062
ITEM: ATOMS id type xu yu zu
1 1   33.743   13.422   26.098
2 1   36.336   11.646   28.105
3 1   32.984   17.011   27.001
4 1   34.465   16.339   30.516
5 1   38.493   15.184   29.240
6 1   34.592   18.669   33.069
7 1   38.354   17.433   34.239
8 1   39.939   18.346   30.419
9 1   39.880   19.427   36.652
10 1  -41.933   18.332   36.049
11 1  -41.473   18.925   31.173
12 1  -38.931   19.480   37.969
13 1  -36.222   18.159   34.865
14 1  -37.779   21.012   30.722
15 1  -32.808   18.680   35.334
16 1  -32.168   18.932   31.673
17 1  -28.828   19.383   30.884
18 1  -29.706   21.308   27.841
19 1  -32.700   24.598   29.573
20 1  -26.655   23.090   26.168
21 1  -28.530   26.014   25.185
22 1  -30.770   27.659   29.118
23 1  -27.062   28.912   22.820
24 1  -29.900   31.353   23.439
25 1  -29.449   30.447   27.167
26 1  -29.476   34.501   22.278
27 1  -30.303   36.474   25.606
28 1  -28.027   33.837   29.022
29 1  -29.875   40.563   25.888
30 1  -28.974   40.543   29.936
31 1  -26.215   37.218   30.083
32 1  -23.388   31.791   38.207
33 1  -24.502   33.264   34.035
34 1  -26.075   30.814   40.125
35 1  -28.971   32.849   38.233
36 1  -27.761   31.621   34.565
37 1  -32.758   32.264   38.899
38 1  -33.805   33.985   35.818
39 1  -31.530   31.927   32.409
40 1  -37.273   34.057   35.323
41 1  -36.813   33.874   31.653
42 1  -34.991   30.563   32.150
43 1  -40.121   33.376   29.667
44 1  -38.221   31.446   26.937
45 1  -36.940   28.249   29.235
46 1  -39.686   30.357   23.994
47 1  -37.168   27.478   23.091
48 1  -36.774   24.668   27.045
49 1  -37.787   25.299   19.922
50 1  -36.320   21.890   21.932
51 1  -38.229   21.828   25.216
52 1  -36.677   18.830   20.126
53 1  -35.875   16.901   23.131
54 1  -39.465   18.275   25.564
55 1  -35.641   13.714   23.182
56 1  -36.154   13.316   27.041
57 1  -40.364   15.159   28.092
58 1  -35.755   10.188   28.303
59 1  -38.840   10.878   31.296
60 1  -41.836   11.930   28.661
61 1  -39.376    8.728   33.863
62 1  -37.632    5.337   31.961
63 1  -32.872    4.849   33.405
ITEM: TIMESTEP
6
ITEM: NUMBER OF ATOMS
63
ITEM: BOX BOUNDS pp pp pp
-6.603720188140869 78.9102783203125
-4.0094499588012695 81.50454711914062
-42.151397705078125 43.36260223388672
ITEM: ATOMS id type xu yu zu
1 1   23.111    9.062  -23.969
2 1   23.689   13.371  -25.754
3 1   20.301    8.299  -22.530
4 1   20.110   12.080  -20.211
5 1   20.548   15.660  -23.330
6 1   17.855   12.440  -18.117
7 1   16.446   15.721  -19.518
8 1   16.848   14.074  -23.558
9 1   13.738   16.703  -18.374
10 1   13.272   19.137  -21.342
11 1   13.489   16.321  -24.831
12 1   10.294   21.555  -21.768
13 1    9.573   20.730  -25.448
14 1   10.180   15.962  -26.673
15 1    6.430   22.131  -27.193
16 1    8.244   24.268  -29.598
17 1    6.511   25.628  -32.572
18 1   10.144   25.069  -34.753
19 1   12.306   20.699  -33.016
20 1   10.022   24.701  -38.848
21 1   13.483   23.220  -39.085
22 1   12.903   19.851  -36.400
23 1   15.106   22.241  -42.151
24 1   17.610   19.287  -40.444
25 1   14.470   17.446  -38.687
26 1   19.724   17.063   42.530
27 1   23.270   17.320  -40.562
28 1   22.675   14.511  -36.653
29 1   26.173   16.306  -41.964
30 1   28.104   14.777  -38.343
31 1   31.499   14.042  -40.642
32 1    4.898   -4.009  -41.230
33 1    2.551   -2.293   40.423
34 1    7.525   -2.393  -40.513
35 1    5.681    1.570  -40.520
36 1    3.190    0.940   41.899
37 1    7.191    4.464  -40.183
38 1    4.115    6.108  -39.193
39 1    1.926    3.792  -36.010
40 1    4.377    9.882  -38.577
41 1    0.674   10.073  -37.257
42 1    1.978    6.941  -34.289
43 1   -0.185   13.176  -35.883
44 1    3.379   13.693  -33.995
45 1    3.003   10.113  -31.862
46 1    3.619   16.590  -32.064
47 1    1.665   15.722  -29.303
48 1    2.229   11.494  -27.961
49 1    2.220   18.143  -26.916
50 1    1.182   15.724  -23.600
51 1    3.094   11.819  -24.363
52 1   -2.174   15.485  -22.583
53 1   -1.539   17.995  -19.145
54 1   -5.426   18.096  -18.774
55 1    0.190   16.385  -16.650
56 1   -2.103   17.583  -14.150
57 1   -6.325   15.898  -15.456
58 1   -1.261   17.184  -10.334
59 1   -3.555   13.962   -9.984
60 1   -6.604   15.735  -11.736
61 1   -4.222   12.362   -6.447
62 1   -3.458    8.764   -7.741
63 1   -2.653    9.536  -12.015
ITEM: TIMESTEP
7
ITEM: NUMBER OF ATOMS
63
ITEM: BOX BOUNDS pp pp pp
-42.46900177001953 43.04499816894531
-41.73200225830078 43.78199768066406
-42.5509033203125 42.963096618652344
ITEM: ATOMS id type xu yu zu
1 1  -34.418  -26.824  -36.958
2 1  -37.037  -26.082  -34.142
3 1  -35.486  -27.405  -40.331
4 1  -39.062  -27.481  -39.434
5 1  -41.109  -29.982  -42.551
6 1  -39.588  -28.951  -36.578
7 1  -42.469  -31.624  -38.223
8 1  -40.184  -33.189  -41.243
9 1   41.219  -33.647  -36.391
10 1   39.165  -34.906  -38.910
11 1   42.383  -36.361  -42.238
12 1   36.628  -37.685  -38.231
13 1   39.694  -40.562  -39.018
14 1   36.774   41.060  -40.076
15 1   42.165  -41.732  -36.576
16 1  -40.784   41.988  -39.494
17 1  -40.880   38.549  -40.296
18 1  -37.233   38.408  -42.237
19 1  -37.772   40.193   38.529
20 1  -36.058   35.066   42.605
21 1  -33.456   35.997   40.303
22 1  -35.654   38.018   36.425
23 1  -30.672   33.810   39.488
24 1  -29.915   35.831   36.451
25 1  -33.562   35.304   34.859
26 1  -27.375   34.997   34.799
27 1  -29.112   33.659   32.033
28 1  -32.006   31.384   33.945
29 1  -27.710   31.950   29.137
30 1  -31.143   29.253   28.649
31 1  -30.486   28.215   32.856
32 1    9.712   39.014    9.736
33 1   13.754   37.888   11.550
34 1    7.552   36.342    9.950
35 1   10.107   33.769    8.761
36 1   12.850   34.396   11.539
37 1    8.858   30.298    8.459
38 1   12.275   29.101    7.865
39 1   15.261   30.856   11.211
40 1   13.097   25.874    6.731
41 1   16.823   25.833    7.743
42 1   15.658   27.077   11.811
43 1   19.099   22.940    7.896
44 1   17.334   21.619   10.638
45 1   18.482   24.237   13.281
46 1   13.921   20.810   10.437
47 1   13.910   19.607   14.096
48 1   16.051   22.875   16.405
49 1   10.324   18.708   15.795
50 1   11.375   18.767   19.486
51 1   14.616   21.041   19.407
52 1   12.134   15.914   21.005
53 1    8.257   15.509   22.678
54 1    6.196   16.206   19.284
55 1    7.413   12.205   24.265
56 1    3.207   13.157   23.872
57 1    3.080   13.364   19.508
58 1    0.552   11.293   25.116
59 1   -1.293   10.553   21.092
60 1   -0.657   14.613   19.585
61 1   -0.556    7.621   19.171
62 1   -4.338    6.515   17.657
63 1   -4.336    1.825   18.065
ITEM: TIMESTEP
8
ITEM: NUMBER OF ATOMS
63
ITEM: BOX BOUNDS pp pp pp
-34.613197326660156 50.90080261230469
-21.589099884033203 63.92490005493164
1.1134800910949707 86.62747955322266
ITEM: ATOMS id type xu yu zu
1 1  -14.275   27.881   42.279
2 1  -11.915   26.024   39.165
3 1  -16.445   30.369   41.627
4 1  -18.328   28.665   39.105
5 1  -15.772   25.198   37.534
6 1  -21.324   27.889   39.341
7 1  -20.986   25.537   36.564
8 1  -18.142   22.741   38.648
9 1  -24.035   24.299   34.574
10 1  -21.843   21.115   32.807
11 1  -20.948   18.327   36.617
12 1  -22.875   19.589   30.449
13 1  -22.013   16.048   31.895
14 1  -23.790   15.673   36.159
15 1  -22.994   12.881   30.032
16 1  -20.340   10.091   32.047
17 1  -17.766    8.136   29.942
18 1  -20.667    6.678   28.070
19 1  -21.907    9.527   24.747
20 1  -22.912    4.289   28.963
21 1  -23.921    4.369   25.445
22 1  -25.641    8.756   24.756
23 1  -26.172    1.997   23.830
24 1  -28.641    4.757   23.592
25 1  -26.391    7.156   21.205
26 1  -32.330    3.824   22.794
27 1  -32.790    7.091   19.823
28 1  -28.630    7.413   17.544
29 1  -33.917   10.300   20.675
30 1  -34.613   11.465   16.644
31 1  -30.555    9.907   15.478
32 1    3.291  -11.075    1.113
33 1    1.996   -7.528    3.469
34 1    6.794  -11.164    1.366
35 1    6.582   -8.724    4.129
36 1    3.299  -10.579    6.007
37 1    9.655   -8.426    6.783
38 1    7.247   -6.214    9.290
39 1    3.267   -8.766    9.997
40 1    8.856   -4.574   12.390
41 1    6.760   -6.328   14.808
42 1    3.201   -5.550   12.163
43 1    7.356   -9.514   16.175
44 1    4.340   -8.596   18.355
45 1    1.557   -6.321   15.805
46 1    3.347  -10.885   20.332
47 1   -0.333   -9.486   20.556
48 1   -2.275   -8.787   15.980
49 1   -2.960  -11.203   22.685
50 1   -5.785  -10.032   20.752
51 1   -4.267  -11.591   16.913
52 1   -8.844  -10.897   21.294
53 1  -10.335   -9.755   17.525
54 1   -7.908  -12.798   15.903
55 1  -13.399  -10.145   16.530
56 1  -12.576  -11.253   12.513
57 1   -9.831  -14.864   12.878
58 1  -15.373  -12.088   10.646
59 1  -15.997  -15.017   12.521
60 1  -12.767  -16.910   11.700
61 1  -18.839  -16.907   11.755
62 1  -17.522  -17.913    8.421
63 1  -15.430  -21.589    8.993
ITEM: TIMESTEP
9
ITEM: NUMBER OF ATOMS
63
ITEM: BOX BOUNDS pp pp pp
-6.220390319824219 79.29360961914062
-42.42420196533203 43.08979797363281
-42.8494987487793 42.66450119018555
ITEM: ATOMS id type xu yu zu
1 1   -5.199  -13.003    4.730
2 1   -6.220  -14.776    1.118
3 1   -2.271  -13.952    5.965
4 1   -2.726  -18.282    5.494
5 1   -5.396  -18.772    1.677
6 1   -0.224  -20.047    5.655
7 1   -1.781  -23.530    3.795
8 1   -3.382  -21.633    0.621
9 1    0.193  -26.170    3.119
10 1   -1.907  -27.447   -0.217
11 1   -2.597  -24.023   -2.770
12 1   -0.395  -30.270   -2.253
13 1   -1.256  -28.477   -5.964
14 1   -0.459  -23.842   -5.903
15 1    0.316  -30.005   -9.226
16 1   -3.400  -31.638  -10.104
17 1   -4.485  -32.416  -13.801
18 1   -0.849  -33.043  -14.523
19 1    1.271  -35.268  -10.601
20 1    0.295  -34.690  -17.588
21 1    3.665  -34.510  -16.758
22 1    4.348  -34.672  -12.422
23 1    6.696  -36.375  -18.560
24 1    9.162  -35.883  -15.906
25 1    6.753  -37.521  -12.932
26 1   12.766  -37.093  -16.031
27 1   13.132  -37.796  -12.066
28 1    9.973  -35.752   -9.692
29 1   16.574  -37.158  -10.570
30 1   15.619  -39.483   -7.366
31 1   11.877  -37.308   -6.981
32 1   15.082   17.753  -42.395
33 1   13.241   18.868   38.844
34 1   18.197   16.914   42.294
35 1   18.276   19.387   39.535
36 1   21.003   17.526   37.246
37 1   18.831   22.657   40.624
38 1   21.729   21.560  -42.849
39 1   24.198   17.968   40.144
40 1   23.927   24.540  -41.269
41 1   23.475   26.972   41.547
42 1   20.759   29.208  -41.983
43 1   25.579   28.726   39.388
44 1   22.981   32.123   39.273
45 1   23.287   32.547  -41.750
46 1   23.967   35.507   37.459
47 1   22.792   37.680   40.229
48 1   25.041   36.262  -41.339
49 1   23.317   41.185   40.171
50 1   23.280   41.505  -41.367
51 1   26.363   39.571  -40.245
52 1   23.475  -40.469  -39.896
53 1   27.135  -40.659  -39.048
54 1   28.369  -42.424   42.418
55 1   29.069  -38.270  -37.787
56 1   32.406  -38.907  -40.385
57 1   32.654   42.431  -41.936
58 1   35.415  -36.705  -40.307
59 1   36.935  -39.758  -39.022
60 1   35.986  -41.891  -42.421
61 1   40.146  -39.511  -38.374
62 1   40.837   42.035  -39.158
63 1   39.688   41.000   41.977
ITEM: TIMESTEP
10
ITEM: NUMBER OF ATOMS
63
ITEM: BOX BOUNDS pp pp pp
-24.213699340820312 61.30030059814453
-25.19860076904297 60.315399169921875
-42.08650207519531 43.42749786376953
ITEM: ATOMS id type xu yu zu
1 1    7.406   11.930   40.397
2 1    9.047   16.049   40.686
3 1    3.563   11.195   40.003
4 1    2.313   10.442  -42.087
5 1    2.719    5.521  -41.394
6 1    4.387   12.325  -39.355
7 1    3.487    9.018  -36.725
8 1    5.405    6.399  -39.036
9 1    4.821    9.303  -33.365
10 1    4.718    5.224  -32.729
11 1    6.561    3.281  -36.674
12 1    6.047    4.192  -30.164
13 1    6.638    0.899  -31.589
14 1    9.503    1.198  -35.105
15 1    7.758   -1.623  -29.425
16 1    9.955   -3.963  -32.290
17 1   12.900   -5.787  -31.301
18 1   11.352   -8.409  -29.304
19 1   15.220   -9.760  -26.227
20 1    9.794  -11.031  -30.802
21 1    9.002  -12.911  -27.206
22 1   12.953  -12.355  -24.828
23 1    7.963  -16.005  -26.779
24 1    8.093  -16.048  -23.213
25 1   12.196  -15.644  -23.173
26 1    6.878  -18.673  -21.053
27 1    9.575  -20.917  -22.008
28 1   13.087  -18.850  -20.511
29 1    9.140  -24.738  -20.602
30 1    6.326  -25.199  -23.516
31 1    9.284  -24.457  -26.009
32 1  -20.828   20.024   -3.126
33 1  -22.253   23.120   -5.833
34 1  -23.059   17.053   -2.447
35 1  -24.214   16.277   -6.450
36 1  -22.334   19.846   -7.852
37 1  -22.614   13.547   -8.263
38 1  -23.060   15.446  -11.970
39 1  -20.778   18.999  -11.906
40 1  -23.425   13.833  -15.177
41 1  -23.004   17.337  -17.119
42 1  -19.461   17.798  -15.047
43 1  -23.165   17.655  -20.827
44 1  -20.539   21.240  -20.759
45 1  -17.366   20.148  -17.794
46 1  -19.630   22.974  -23.612
47 1  -16.147   24.162  -22.273
48 1  -14.257   20.023  -20.538
49 1  -13.788   25.950  -24.412
50 1  -11.038   25.799  -22.057
51 1  -11.106   21.841  -20.887
52 1   -7.309   26.731  -22.996
53 1   -5.488   24.148  -20.346
54 1   -7.728   20.927  -22.379
55 1   -2.310   23.656  -20.389
56 1   -2.186   19.812  -18.812
57 1   -5.451   17.637  -20.464
58 1    0.677   18.033  -18.862
59 1   -1.351   14.807  -20.282
60 1   -4.489   15.660  -17.432
61 1   -2.277   14.151  -23.681
62 1    0.518   11.786  -23.854
63 1    3.410   13.302  -27.683
ITEM: TIMESTEP
11
ITEM: NUMBER OF ATOMS
63
ITEM: BOX BOUNDS pp pp pp
-42.5552978515625 42.958702087402344
-42.46440124511719 43.049598693847656
-3.3792498111724854 82.13475036621094
ITEM: ATOMS id type xu yu zu
1 1   37.288  -42.464   -3.379
2 1   37.712  -39.405   -0.626
3 1   39.251   40.680   -2.954
4 1   42.020   42.512   -1.190
5 1   40.236  -41.084    2.489
6 1  -40.434   40.167   -0.319
7 1  -41.098   40.050    3.563
8 1   40.292   40.706    2.870
9 1  -39.978   37.525    5.569
10 1  -42.555   37.609    8.043
11 1   39.392   36.840    5.396
12 1  -42.203   35.300   11.006
13 1   39.540   35.100   11.408
14 1   37.652   33.954    7.233
15 1   37.965   33.544   14.572
16 1   34.713   32.481   13.346
17 1   32.726   29.728   15.193
18 1   31.432   28.476   11.943
19 1   35.065   27.797    8.809
20 1   28.947   25.298   11.702
21 1   29.944   24.011    8.428
22 1   34.289   24.165    8.917
23 1   29.055   20.564    7.022
24 1   32.229   20.473    4.916
25 1   34.360   20.664    8.163
26 1   32.401   17.431    2.480
27 1   36.089   16.076    3.175
28 1   37.394   17.801    7.864
29 1   36.881   12.568    2.887
30 1   35.172   11.379    6.156
31 1   37.682   14.112    7.865
32 1   42.380   14.830   15.077
33 1   38.732   16.656   13.728
34 1  -40.107   16.137   13.450
35 1  -41.070   20.081   13.908
36 1   40.317   19.638   12.469
37 1  -39.065   22.230   11.971
38 1  -40.946   21.742    8.539
39 1   40.216   22.075    9.047
40 1  -39.951   23.296    5.843
41 1   42.094   23.190    3.825
42 1   40.008   25.074    6.961
43 1   41.779   24.425    0.348
44 1   37.929   25.352    0.426
45 1   38.085   27.231    4.175
46 1   36.688   27.247   -2.112
47 1   33.755   28.384   -0.066
48 1   35.437   30.484    4.059
49 1   31.258   30.650   -1.356
50 1   30.250   32.264    2.375
51 1   34.155   33.607    2.953
52 1   28.072   34.219    3.296
53 1   30.006   35.896    6.802
54 1   33.535   37.149    4.436
55 1   28.627   38.174    9.314
56 1   31.710   41.002    9.854
57 1   34.920   40.742    5.959
58 1   31.636  -41.528   12.112
59 1   33.521  -39.386    9.705
60 1   35.821  -42.219    8.642
61 1   35.026  -35.856   10.844
62 1   31.803  -34.419   12.813
63 1   28.217  -35.138   10.698
ITEM: TIMESTEP
12
ITEM: NUMBER OF ATOMS
63
ITEM: BOX BOUNDS pp pp pp
-41.5703010559082 43.94369888305664
-41.6239013671875 43.890098571777344
-43.11900329589844 42.394996643066406
ITEM: ATOMS id type xu yu zu
1 1    9.107   32.885   24.371
2 1   10.322   31.755   20.259
3 1   10.305   31.021   26.566
4 1    8.397   32.437   29.390
5 1    9.459   30.268   33.071
6 1    9.054   35.540   29.709
7 1    7.130   36.567   32.939
8 1    8.652   33.373   34.788
9 1    7.183   39.673   34.617
10 1    6.582   38.254   38.461
11 1    5.483   33.765   37.823
12 1    8.514   39.016   41.453
13 1   10.601   35.633   41.385
14 1    7.262   32.303   40.856
15 1   12.260   34.824  -41.479
16 1   15.374   37.414  -42.175
17 1   14.821   40.641   41.138
18 1   11.720   41.940  -41.978
19 1   12.628   41.876  -37.207
20 1   10.099  -40.544  -43.119
21 1    9.439  -38.716  -39.560
22 1    6.813  -41.624  -37.114
23 1    7.787  -35.965  -39.529
24 1    7.674  -35.527  -35.334
25 1    5.521  -38.729  -35.058
26 1    5.882  -32.615  -34.090
27 1    2.504  -33.396  -35.888
28 1    1.928  -37.945  -36.908
29 1   -0.355  -31.023  -36.756
30 1   -3.307  -33.618  -36.914
31 1   -1.183  -36.583  -38.529
32 1   41.248   19.565  -27.708
33 1   39.987   20.231  -23.099
34 1   38.696   18.121  -29.897
35 1   37.403   15.653  -27.315
36 1   36.754   18.764  -24.661
37 1   34.745   13.516  -28.005
38 1   36.586   10.777  -29.210
39 1   38.026    9.968  -25.208
40 1   34.716    8.074  -30.563
41 1   37.303    5.347  -29.843
42 1   34.634    2.835  -27.353
43 1   39.547    4.148  -32.346
44 1   40.854    1.101  -30.250
45 1   37.238   -0.211  -29.138
46 1   42.977    1.459  -27.775
47 1   43.073   -2.318  -26.759
48 1   38.668   -4.173  -28.649
49 1  -39.416   -4.637  -27.576
50 1  -41.570   -8.291  -27.657
51 1   40.031   -7.522  -28.312
52 1  -40.460  -11.309  -28.937
53 1   41.139  -11.939  -29.866
54 1   41.077   -8.058  -32.075
55 1   40.004  -15.161  -32.151
56 1   39.618  -18.481  -29.156
57 1   40.611  -15.906  -25.479
58 1   37.148  -20.511  -28.898
59 1   38.033  -21.571  -25.515
60 1   38.021  -17.979  -23.686
61 1   36.525  -24.097  -23.910
62 1   38.178  -23.666  -20.483
63 1   36.371  -19.576  -20.144
ITEM: TIMESTEP
13
ITEM: NUMBER OF ATOMS
63
ITEM: BOX BOUNDS pp pp pp
-40.02149963378906 45.49250030517578
8.770549774169922 94.2845458984375
-8.992310523986816 76.52169036865234
ITEM: ATOMS id type xu yu zu
1 1  -40.018   37.721   -1.485
2 1   42.170   37.340    1.012
3 1  -39.015   35.020   -3.390
4 1  -39.362   32.640   -0.414
5 1   41.960   33.216    1.397
6 1  -38.208   29.509   -0.335
7 1  -40.021   28.414    2.854
8 1   42.155   29.341    1.278
9 1  -39.839   25.075    3.824
10 1   41.960   25.238    5.668
11 1   38.637   26.421    1.835
12 1   40.526   22.825    7.875
13 1   36.523   24.466    7.338
14 1   35.435   24.295    2.442
15 1   33.846   23.197    9.280
16 1   30.844   25.473    6.981
17 1   27.223   25.763    8.452
18 1   25.617   24.979    4.893
19 1   28.040   21.479    3.319
20 1   21.905   24.228    4.610
21 1   22.497   22.172    1.157
22 1   25.408   19.221    2.526
23 1   19.624   20.782   -0.395
24 1   21.556   18.153   -2.030
25 1   22.852   16.479    1.812
26 1   19.631   15.986   -4.001
27 1   22.065   12.503   -3.513
28 1   22.268   11.435    0.941
29 1   25.509   12.468   -4.923
30 1   24.178    9.503   -7.391
31 1   28.552    8.771   -8.992